h 0 4 7 tcp 40 ------- 1 4.0 2.0 0 0
+ 0.01 4 7 tcp 40 ------- 1 4.0 2.0 0 0
- 0.01 4 7 tcp 40 ------- 1 4.0 2.0 0 0
r 0.020516 7 5 tcp 40 ------- 1 4.0 2.0 0 0
+ 0.020516 5 0 tcp 40 ------- 1 4.0 2.0 0 0
- 0.020516 5 0 tcp 40 ------- 1 4.0 2.0 0 0
r 0.030836 5 0 tcp 40 ------- 1 4.0 2.0 0 0
h 0.030836 0 6 tcp 40 ------- 1 4.0 2.0 0 0
+ 0.040836 0 6 tcp 40 ------- 1 4.0 2.0 0 0
- 0.040836 0 6 tcp 40 ------- 1 4.0 2.0 0 0
r 0.051352 6 2 tcp 40 ------- 1 4.0 2.0 0 0
h 0.051352 2 6 ack 40 ------- 1 2.0 4.0 0 1
+ 0.061352 2 6 ack 40 ------- 1 2.0 4.0 0 1
- 0.061352 2 6 ack 40 ------- 1 2.0 4.0 0 1
r 0.071868 6 0 ack 40 ------- 1 2.0 4.0 0 1
+ 0.071868 0 5 ack 40 ------- 1 2.0 4.0 0 1
- 0.071868 0 5 ack 40 ------- 1 2.0 4.0 0 1
r 0.082188 0 5 ack 40 ------- 1 2.0 4.0 0 1
h 0.082188 5 7 ack 40 ------- 1 2.0 4.0 0 1
+ 0.092188 5 7 ack 40 ------- 1 2.0 4.0 0 1
- 0.092188 5 7 ack 40 ------- 1 2.0 4.0 0 1
r 0.102704 7 4 ack 40 ------- 1 2.0 4.0 0 1
h 0.102704 4 7 tcp 1040 ------- 1 4.0 2.0 1 2
h 0.102704 4 7 tcp 1040 ------- 1 4.0 2.0 2 3
+ 0.112704 4 7 tcp 1040 ------- 1 4.0 2.0 1 2
- 0.112704 4 7 tcp 1040 ------- 1 4.0 2.0 1 2
+ 0.112704 4 7 tcp 1040 ------- 1 4.0 2.0 2 3
- 0.121232 4 7 tcp 1040 ------- 1 4.0 2.0 2 3
r 0.13114 7 5 tcp 1040 ------- 1 4.0 2.0 1 2
+ 0.13114 5 0 tcp 1040 ------- 1 4.0 2.0 1 2
- 0.13114 5 0 tcp 1040 ------- 1 4.0 2.0 1 2
r 0.139668 7 5 tcp 1040 ------- 1 4.0 2.0 2 3
+ 0.139668 5 0 tcp 1040 ------- 1 4.0 2.0 2 3
- 0.139668 5 0 tcp 1040 ------- 1 4.0 2.0 2 3
r 0.14946 5 0 tcp 1040 ------- 1 4.0 2.0 1 2
h 0.14946 0 6 tcp 1040 ------- 1 4.0 2.0 1 2
r 0.157988 5 0 tcp 1040 ------- 1 4.0 2.0 2 3
h 0.157988 0 6 tcp 1040 ------- 1 4.0 2.0 2 3
+ 0.15946 0 6 tcp 1040 ------- 1 4.0 2.0 1 2
- 0.15946 0 6 tcp 1040 ------- 1 4.0 2.0 1 2
+ 0.167988 0 6 tcp 1040 ------- 1 4.0 2.0 2 3
- 0.167988 0 6 tcp 1040 ------- 1 4.0 2.0 2 3
r 0.177896 6 2 tcp 1040 ------- 1 4.0 2.0 1 2
h 0.177896 2 6 ack 40 ------- 1 2.0 4.0 1 4
r 0.186424 6 2 tcp 1040 ------- 1 4.0 2.0 2 3
h 0.186424 2 6 ack 40 ------- 1 2.0 4.0 2 5
+ 0.187896 2 6 ack 40 ------- 1 2.0 4.0 1 4
- 0.187896 2 6 ack 40 ------- 1 2.0 4.0 1 4
+ 0.196424 2 6 ack 40 ------- 1 2.0 4.0 2 5
- 0.196424 2 6 ack 40 ------- 1 2.0 4.0 2 5
r 0.198412 6 0 ack 40 ------- 1 2.0 4.0 1 4
+ 0.198412 0 5 ack 40 ------- 1 2.0 4.0 1 4
- 0.198412 0 5 ack 40 ------- 1 2.0 4.0 1 4
r 0.20694 6 0 ack 40 ------- 1 2.0 4.0 2 5
+ 0.20694 0 5 ack 40 ------- 1 2.0 4.0 2 5
- 0.20694 0 5 ack 40 ------- 1 2.0 4.0 2 5
r 0.208732 0 5 ack 40 ------- 1 2.0 4.0 1 4
h 0.208732 5 7 ack 40 ------- 1 2.0 4.0 1 4
r 0.21726 0 5 ack 40 ------- 1 2.0 4.0 2 5
h 0.21726 5 7 ack 40 ------- 1 2.0 4.0 2 5
+ 0.218732 5 7 ack 40 ------- 1 2.0 4.0 1 4
- 0.218732 5 7 ack 40 ------- 1 2.0 4.0 1 4
+ 0.22726 5 7 ack 40 ------- 1 2.0 4.0 2 5
- 0.22726 5 7 ack 40 ------- 1 2.0 4.0 2 5
r 0.229248 7 4 ack 40 ------- 1 2.0 4.0 1 4
h 0.229248 4 7 tcp 1040 ------- 1 4.0 2.0 3 6
h 0.229248 4 7 tcp 1040 ------- 1 4.0 2.0 4 7
r 0.237776 7 4 ack 40 ------- 1 2.0 4.0 2 5
h 0.237776 4 7 tcp 1040 ------- 1 4.0 2.0 5 8
h 0.237776 4 7 tcp 1040 ------- 1 4.0 2.0 6 9
+ 0.239248 4 7 tcp 1040 ------- 1 4.0 2.0 3 6
- 0.239248 4 7 tcp 1040 ------- 1 4.0 2.0 3 6
+ 0.239248 4 7 tcp 1040 ------- 1 4.0 2.0 4 7
+ 0.247776 4 7 tcp 1040 ------- 1 4.0 2.0 5 8
+ 0.247776 4 7 tcp 1040 ------- 1 4.0 2.0 6 9
- 0.247776 4 7 tcp 1040 ------- 1 4.0 2.0 4 7
- 0.256304 4 7 tcp 1040 ------- 1 4.0 2.0 5 8
r 0.257684 7 5 tcp 1040 ------- 1 4.0 2.0 3 6
+ 0.257684 5 0 tcp 1040 ------- 1 4.0 2.0 3 6
- 0.257684 5 0 tcp 1040 ------- 1 4.0 2.0 3 6
- 0.264832 4 7 tcp 1040 ------- 1 4.0 2.0 6 9
r 0.266212 7 5 tcp 1040 ------- 1 4.0 2.0 4 7
+ 0.266212 5 0 tcp 1040 ------- 1 4.0 2.0 4 7
- 0.266212 5 0 tcp 1040 ------- 1 4.0 2.0 4 7
r 0.27474 7 5 tcp 1040 ------- 1 4.0 2.0 5 8
+ 0.27474 5 0 tcp 1040 ------- 1 4.0 2.0 5 8
- 0.27474 5 0 tcp 1040 ------- 1 4.0 2.0 5 8
r 0.276004 5 0 tcp 1040 ------- 1 4.0 2.0 3 6
h 0.276004 0 6 tcp 1040 ------- 1 4.0 2.0 3 6
r 0.283268 7 5 tcp 1040 ------- 1 4.0 2.0 6 9
+ 0.283268 5 0 tcp 1040 ------- 1 4.0 2.0 6 9
- 0.283268 5 0 tcp 1040 ------- 1 4.0 2.0 6 9
r 0.284532 5 0 tcp 1040 ------- 1 4.0 2.0 4 7
h 0.284532 0 6 tcp 1040 ------- 1 4.0 2.0 4 7
+ 0.286004 0 6 tcp 1040 ------- 1 4.0 2.0 3 6
- 0.286004 0 6 tcp 1040 ------- 1 4.0 2.0 3 6
r 0.29306 5 0 tcp 1040 ------- 1 4.0 2.0 5 8
h 0.29306 0 6 tcp 1040 ------- 1 4.0 2.0 5 8
+ 0.294532 0 6 tcp 1040 ------- 1 4.0 2.0 4 7
- 0.294532 0 6 tcp 1040 ------- 1 4.0 2.0 4 7
r 0.301588 5 0 tcp 1040 ------- 1 4.0 2.0 6 9
h 0.301588 0 6 tcp 1040 ------- 1 4.0 2.0 6 9
+ 0.30306 0 6 tcp 1040 ------- 1 4.0 2.0 5 8
- 0.30306 0 6 tcp 1040 ------- 1 4.0 2.0 5 8
r 0.30444 6 2 tcp 1040 ------- 1 4.0 2.0 3 6
h 0.30444 2 6 ack 40 ------- 1 2.0 4.0 3 10
+ 0.311588 0 6 tcp 1040 ------- 1 4.0 2.0 6 9
- 0.311588 0 6 tcp 1040 ------- 1 4.0 2.0 6 9
r 0.312968 6 2 tcp 1040 ------- 1 4.0 2.0 4 7
h 0.312968 2 6 ack 40 ------- 1 2.0 4.0 4 11
+ 0.31444 2 6 ack 40 ------- 1 2.0 4.0 3 10
- 0.31444 2 6 ack 40 ------- 1 2.0 4.0 3 10
r 0.321496 6 2 tcp 1040 ------- 1 4.0 2.0 5 8
h 0.321496 2 6 ack 40 ------- 1 2.0 4.0 5 12
+ 0.322968 2 6 ack 40 ------- 1 2.0 4.0 4 11
- 0.322968 2 6 ack 40 ------- 1 2.0 4.0 4 11
r 0.330024 6 2 tcp 1040 ------- 1 4.0 2.0 6 9
h 0.330024 2 6 ack 40 ------- 1 2.0 4.0 6 13
r 0.330636 6 0 ack 40 ------- 1 2.0 4.0 3 10
+ 0.330636 0 5 ack 40 ------- 1 2.0 4.0 3 10
- 0.330636 0 5 ack 40 ------- 1 2.0 4.0 3 10
+ 0.331496 2 6 ack 40 ------- 1 2.0 4.0 5 12
- 0.331496 2 6 ack 40 ------- 1 2.0 4.0 5 12
r 0.333484 6 0 ack 40 ------- 1 2.0 4.0 4 11
+ 0.333484 0 5 ack 40 ------- 1 2.0 4.0 4 11
- 0.333484 0 5 ack 40 ------- 1 2.0 4.0 4 11
+ 0.340024 2 6 ack 40 ------- 1 2.0 4.0 6 13
- 0.340024 2 6 ack 40 ------- 1 2.0 4.0 6 13
r 0.340956 0 5 ack 40 ------- 1 2.0 4.0 3 10
h 0.340956 5 7 ack 40 ------- 1 2.0 4.0 3 10
r 0.342012 6 0 ack 40 ------- 1 2.0 4.0 5 12
+ 0.342012 0 5 ack 40 ------- 1 2.0 4.0 5 12
- 0.342012 0 5 ack 40 ------- 1 2.0 4.0 5 12
r 0.343804 0 5 ack 40 ------- 1 2.0 4.0 4 11
h 0.343804 5 7 ack 40 ------- 1 2.0 4.0 4 11
r 0.35054 6 0 ack 40 ------- 1 2.0 4.0 6 13
+ 0.35054 0 5 ack 40 ------- 1 2.0 4.0 6 13
- 0.35054 0 5 ack 40 ------- 1 2.0 4.0 6 13
+ 0.350956 5 7 ack 40 ------- 1 2.0 4.0 3 10
- 0.350956 5 7 ack 40 ------- 1 2.0 4.0 3 10
r 0.352332 0 5 ack 40 ------- 1 2.0 4.0 5 12
h 0.352332 5 7 ack 40 ------- 1 2.0 4.0 5 12
+ 0.353804 5 7 ack 40 ------- 1 2.0 4.0 4 11
- 0.353804 5 7 ack 40 ------- 1 2.0 4.0 4 11
r 0.36086 0 5 ack 40 ------- 1 2.0 4.0 6 13
h 0.36086 5 7 ack 40 ------- 1 2.0 4.0 6 13
r 0.361472 7 4 ack 40 ------- 1 2.0 4.0 3 10
h 0.361472 4 7 tcp 1040 ------- 1 4.0 2.0 7 14
h 0.361472 4 7 tcp 1040 ------- 1 4.0 2.0 8 15
+ 0.362332 5 7 ack 40 ------- 1 2.0 4.0 5 12
- 0.362332 5 7 ack 40 ------- 1 2.0 4.0 5 12
r 0.36432 7 4 ack 40 ------- 1 2.0 4.0 4 11
h 0.36432 4 7 tcp 1040 ------- 1 4.0 2.0 9 16
h 0.36432 4 7 tcp 1040 ------- 1 4.0 2.0 10 17
+ 0.37086 5 7 ack 40 ------- 1 2.0 4.0 6 13
- 0.37086 5 7 ack 40 ------- 1 2.0 4.0 6 13
+ 0.371472 4 7 tcp 1040 ------- 1 4.0 2.0 7 14
- 0.371472 4 7 tcp 1040 ------- 1 4.0 2.0 7 14
+ 0.371472 4 7 tcp 1040 ------- 1 4.0 2.0 8 15
r 0.372848 7 4 ack 40 ------- 1 2.0 4.0 5 12
h 0.372848 4 7 tcp 1040 ------- 1 4.0 2.0 11 18
h 0.372848 4 7 tcp 1040 ------- 1 4.0 2.0 12 19
+ 0.37432 4 7 tcp 1040 ------- 1 4.0 2.0 9 16
+ 0.37432 4 7 tcp 1040 ------- 1 4.0 2.0 10 17
- 0.38 4 7 tcp 1040 ------- 1 4.0 2.0 8 15
r 0.381376 7 4 ack 40 ------- 1 2.0 4.0 6 13
h 0.381376 4 7 tcp 1040 ------- 1 4.0 2.0 13 20
h 0.381376 4 7 tcp 1040 ------- 1 4.0 2.0 14 21
+ 0.382848 4 7 tcp 1040 ------- 1 4.0 2.0 11 18
+ 0.382848 4 7 tcp 1040 ------- 1 4.0 2.0 12 19
- 0.388528 4 7 tcp 1040 ------- 1 4.0 2.0 9 16
r 0.389908 7 5 tcp 1040 ------- 1 4.0 2.0 7 14
+ 0.389908 5 0 tcp 1040 ------- 1 4.0 2.0 7 14
- 0.389908 5 0 tcp 1040 ------- 1 4.0 2.0 7 14
+ 0.391376 4 7 tcp 1040 ------- 1 4.0 2.0 13 20
+ 0.391376 4 7 tcp 1040 ------- 1 4.0 2.0 14 21
- 0.397056 4 7 tcp 1040 ------- 1 4.0 2.0 10 17
r 0.398436 7 5 tcp 1040 ------- 1 4.0 2.0 8 15
+ 0.398436 5 0 tcp 1040 ------- 1 4.0 2.0 8 15
- 0.398436 5 0 tcp 1040 ------- 1 4.0 2.0 8 15
- 0.405584 4 7 tcp 1040 ------- 1 4.0 2.0 11 18
r 0.406964 7 5 tcp 1040 ------- 1 4.0 2.0 9 16
+ 0.406964 5 0 tcp 1040 ------- 1 4.0 2.0 9 16
- 0.406964 5 0 tcp 1040 ------- 1 4.0 2.0 9 16
r 0.408228 5 0 tcp 1040 ------- 1 4.0 2.0 7 14
h 0.408228 0 6 tcp 1040 ------- 1 4.0 2.0 7 14
- 0.414112 4 7 tcp 1040 ------- 1 4.0 2.0 12 19
r 0.415492 7 5 tcp 1040 ------- 1 4.0 2.0 10 17
+ 0.415492 5 0 tcp 1040 ------- 1 4.0 2.0 10 17
- 0.415492 5 0 tcp 1040 ------- 1 4.0 2.0 10 17
r 0.416756 5 0 tcp 1040 ------- 1 4.0 2.0 8 15
h 0.416756 0 6 tcp 1040 ------- 1 4.0 2.0 8 15
+ 0.418228 0 6 tcp 1040 ------- 1 4.0 2.0 7 14
- 0.418228 0 6 tcp 1040 ------- 1 4.0 2.0 7 14
- 0.42264 4 7 tcp 1040 ------- 1 4.0 2.0 13 20
r 0.42402 7 5 tcp 1040 ------- 1 4.0 2.0 11 18
+ 0.42402 5 0 tcp 1040 ------- 1 4.0 2.0 11 18
- 0.42402 5 0 tcp 1040 ------- 1 4.0 2.0 11 18
r 0.425284 5 0 tcp 1040 ------- 1 4.0 2.0 9 16
h 0.425284 0 6 tcp 1040 ------- 1 4.0 2.0 9 16
+ 0.426756 0 6 tcp 1040 ------- 1 4.0 2.0 8 15
- 0.426756 0 6 tcp 1040 ------- 1 4.0 2.0 8 15
- 0.431168 4 7 tcp 1040 ------- 1 4.0 2.0 14 21
r 0.432548 7 5 tcp 1040 ------- 1 4.0 2.0 12 19
+ 0.432548 5 0 tcp 1040 ------- 1 4.0 2.0 12 19
- 0.432548 5 0 tcp 1040 ------- 1 4.0 2.0 12 19
r 0.433812 5 0 tcp 1040 ------- 1 4.0 2.0 10 17
h 0.433812 0 6 tcp 1040 ------- 1 4.0 2.0 10 17
+ 0.435284 0 6 tcp 1040 ------- 1 4.0 2.0 9 16
- 0.435284 0 6 tcp 1040 ------- 1 4.0 2.0 9 16
r 0.436664 6 2 tcp 1040 ------- 1 4.0 2.0 7 14
h 0.436664 2 6 ack 40 ------- 1 2.0 4.0 7 22
r 0.441076 7 5 tcp 1040 ------- 1 4.0 2.0 13 20
+ 0.441076 5 0 tcp 1040 ------- 1 4.0 2.0 13 20
- 0.441076 5 0 tcp 1040 ------- 1 4.0 2.0 13 20
r 0.44234 5 0 tcp 1040 ------- 1 4.0 2.0 11 18
h 0.44234 0 6 tcp 1040 ------- 1 4.0 2.0 11 18
+ 0.443812 0 6 tcp 1040 ------- 1 4.0 2.0 10 17
- 0.443812 0 6 tcp 1040 ------- 1 4.0 2.0 10 17
r 0.445192 6 2 tcp 1040 ------- 1 4.0 2.0 8 15
h 0.445192 2 6 ack 40 ------- 1 2.0 4.0 8 23
+ 0.446664 2 6 ack 40 ------- 1 2.0 4.0 7 22
- 0.446664 2 6 ack 40 ------- 1 2.0 4.0 7 22
r 0.449604 7 5 tcp 1040 ------- 1 4.0 2.0 14 21
+ 0.449604 5 0 tcp 1040 ------- 1 4.0 2.0 14 21
- 0.449604 5 0 tcp 1040 ------- 1 4.0 2.0 14 21
r 0.450868 5 0 tcp 1040 ------- 1 4.0 2.0 12 19
h 0.450868 0 6 tcp 1040 ------- 1 4.0 2.0 12 19
+ 0.45234 0 6 tcp 1040 ------- 1 4.0 2.0 11 18
- 0.45234 0 6 tcp 1040 ------- 1 4.0 2.0 11 18
r 0.45372 6 2 tcp 1040 ------- 1 4.0 2.0 9 16
h 0.45372 2 6 ack 40 ------- 1 2.0 4.0 9 24
+ 0.455192 2 6 ack 40 ------- 1 2.0 4.0 8 23
r 0.459396 5 0 tcp 1040 ------- 1 4.0 2.0 13 20
h 0.459396 0 6 tcp 1040 ------- 1 4.0 2.0 13 20
+ 0.460868 0 6 tcp 1040 ------- 1 4.0 2.0 12 19
- 0.461004 0 6 tcp 1040 ------- 1 4.0 2.0 12 19
r 0.462248 6 2 tcp 1040 ------- 1 4.0 2.0 10 17
h 0.462248 2 6 ack 40 ------- 1 2.0 4.0 10 25
+ 0.46372 2 6 ack 40 ------- 1 2.0 4.0 9 24
r 0.467924 5 0 tcp 1040 ------- 1 4.0 2.0 14 21
h 0.467924 0 6 tcp 1040 ------- 1 4.0 2.0 14 21
+ 0.469396 0 6 tcp 1040 ------- 1 4.0 2.0 13 20
- 0.47018 0 6 tcp 1040 ------- 1 4.0 2.0 13 20
r 0.470912 6 2 tcp 1040 ------- 1 4.0 2.0 11 18
h 0.470912 2 6 ack 40 ------- 1 2.0 4.0 11 26
+ 0.472248 2 6 ack 40 ------- 1 2.0 4.0 10 25
+ 0.477924 0 6 tcp 1040 ------- 1 4.0 2.0 14 21
- 0.478844 0 6 tcp 1040 ------- 1 4.0 2.0 14 21
r 0.480088 6 2 tcp 1040 ------- 1 4.0 2.0 12 19
h 0.480088 2 6 ack 40 ------- 1 2.0 4.0 12 27
+ 0.480912 2 6 ack 40 ------- 1 2.0 4.0 11 26
- 0.488632 2 6 ack 40 ------- 1 2.0 4.0 8 23
r 0.488752 6 2 tcp 1040 ------- 1 4.0 2.0 13 20
h 0.488752 2 6 ack 40 ------- 1 2.0 4.0 13 28
- 0.48924 2 6 ack 40 ------- 1 2.0 4.0 9 24
- 0.489848 2 6 ack 40 ------- 1 2.0 4.0 10 25
+ 0.490088 2 6 ack 40 ------- 1 2.0 4.0 12 27
- 0.490456 2 6 ack 40 ------- 1 2.0 4.0 11 26
- 0.491064 2 6 ack 40 ------- 1 2.0 4.0 12 27
r 0.497928 6 2 tcp 1040 ------- 1 4.0 2.0 14 21
h 0.497928 2 6 ack 40 ------- 1 2.0 4.0 14 29
r 0.49854 6 0 ack 40 ------- 1 2.0 4.0 7 22
+ 0.49854 0 5 ack 40 ------- 1 2.0 4.0 7 22
- 0.49854 0 5 ack 40 ------- 1 2.0 4.0 7 22
+ 0.498752 2 6 ack 40 ------- 1 2.0 4.0 13 28
- 0.498752 2 6 ack 40 ------- 1 2.0 4.0 13 28
r 0.499148 6 0 ack 40 ------- 1 2.0 4.0 8 23
+ 0.499148 0 5 ack 40 ------- 1 2.0 4.0 8 23
- 0.499148 0 5 ack 40 ------- 1 2.0 4.0 8 23
r 0.499756 6 0 ack 40 ------- 1 2.0 4.0 9 24
+ 0.499756 0 5 ack 40 ------- 1 2.0 4.0 9 24
- 0.499756 0 5 ack 40 ------- 1 2.0 4.0 9 24
r 0.500364 6 0 ack 40 ------- 1 2.0 4.0 10 25
+ 0.500364 0 5 ack 40 ------- 1 2.0 4.0 10 25
- 0.500364 0 5 ack 40 ------- 1 2.0 4.0 10 25
r 0.500972 6 0 ack 40 ------- 1 2.0 4.0 11 26
+ 0.500972 0 5 ack 40 ------- 1 2.0 4.0 11 26
- 0.500972 0 5 ack 40 ------- 1 2.0 4.0 11 26
r 0.50158 6 0 ack 40 ------- 1 2.0 4.0 12 27
+ 0.50158 0 5 ack 40 ------- 1 2.0 4.0 12 27
- 0.50158 0 5 ack 40 ------- 1 2.0 4.0 12 27
+ 0.507928 2 6 ack 40 ------- 1 2.0 4.0 14 29
- 0.507928 2 6 ack 40 ------- 1 2.0 4.0 14 29
r 0.50886 0 5 ack 40 ------- 1 2.0 4.0 7 22
h 0.50886 5 7 ack 40 ------- 1 2.0 4.0 7 22
r 0.509268 6 0 ack 40 ------- 1 2.0 4.0 13 28
+ 0.509268 0 5 ack 40 ------- 1 2.0 4.0 13 28
- 0.509268 0 5 ack 40 ------- 1 2.0 4.0 13 28
r 0.509468 0 5 ack 40 ------- 1 2.0 4.0 8 23
h 0.509468 5 7 ack 40 ------- 1 2.0 4.0 8 23
r 0.510076 0 5 ack 40 ------- 1 2.0 4.0 9 24
h 0.510076 5 7 ack 40 ------- 1 2.0 4.0 9 24
r 0.510684 0 5 ack 40 ------- 1 2.0 4.0 10 25
h 0.510684 5 7 ack 40 ------- 1 2.0 4.0 10 25
r 0.511292 0 5 ack 40 ------- 1 2.0 4.0 11 26
h 0.511292 5 7 ack 40 ------- 1 2.0 4.0 11 26
r 0.5119 0 5 ack 40 ------- 1 2.0 4.0 12 27
h 0.5119 5 7 ack 40 ------- 1 2.0 4.0 12 27
r 0.518444 6 0 ack 40 ------- 1 2.0 4.0 14 29
+ 0.518444 0 5 ack 40 ------- 1 2.0 4.0 14 29
- 0.518444 0 5 ack 40 ------- 1 2.0 4.0 14 29
+ 0.51886 5 7 ack 40 ------- 1 2.0 4.0 7 22
- 0.51886 5 7 ack 40 ------- 1 2.0 4.0 7 22
+ 0.519468 5 7 ack 40 ------- 1 2.0 4.0 8 23
- 0.519468 5 7 ack 40 ------- 1 2.0 4.0 8 23
r 0.519588 0 5 ack 40 ------- 1 2.0 4.0 13 28
h 0.519588 5 7 ack 40 ------- 1 2.0 4.0 13 28
+ 0.520076 5 7 ack 40 ------- 1 2.0 4.0 9 24
- 0.520076 5 7 ack 40 ------- 1 2.0 4.0 9 24
+ 0.520684 5 7 ack 40 ------- 1 2.0 4.0 10 25
- 0.520684 5 7 ack 40 ------- 1 2.0 4.0 10 25
+ 0.521292 5 7 ack 40 ------- 1 2.0 4.0 11 26
- 0.521292 5 7 ack 40 ------- 1 2.0 4.0 11 26
+ 0.5219 5 7 ack 40 ------- 1 2.0 4.0 12 27
- 0.5219 5 7 ack 40 ------- 1 2.0 4.0 12 27
r 0.528764 0 5 ack 40 ------- 1 2.0 4.0 14 29
h 0.528764 5 7 ack 40 ------- 1 2.0 4.0 14 29
r 0.529376 7 4 ack 40 ------- 1 2.0 4.0 7 22
h 0.529376 4 7 tcp 1040 ------- 1 4.0 2.0 15 30
h 0.529376 4 7 tcp 1040 ------- 1 4.0 2.0 16 31
+ 0.529588 5 7 ack 40 ------- 1 2.0 4.0 13 28
- 0.529588 5 7 ack 40 ------- 1 2.0 4.0 13 28
r 0.529984 7 4 ack 40 ------- 1 2.0 4.0 8 23
h 0.529984 4 7 tcp 1040 ------- 1 4.0 2.0 17 32
h 0.529984 4 7 tcp 1040 ------- 1 4.0 2.0 18 33
r 0.530592 7 4 ack 40 ------- 1 2.0 4.0 9 24
h 0.530592 4 7 tcp 1040 ------- 1 4.0 2.0 19 34
h 0.530592 4 7 tcp 1040 ------- 1 4.0 2.0 20 35
r 0.5312 7 4 ack 40 ------- 1 2.0 4.0 10 25
h 0.5312 4 7 tcp 1040 ------- 1 4.0 2.0 21 36
h 0.5312 4 7 tcp 1040 ------- 1 4.0 2.0 22 37
r 0.531808 7 4 ack 40 ------- 1 2.0 4.0 11 26
h 0.531808 4 7 tcp 1040 ------- 1 4.0 2.0 23 38
h 0.531808 4 7 tcp 1040 ------- 1 4.0 2.0 24 39
r 0.532416 7 4 ack 40 ------- 1 2.0 4.0 12 27
h 0.532416 4 7 tcp 1040 ------- 1 4.0 2.0 25 40
h 0.532416 4 7 tcp 1040 ------- 1 4.0 2.0 26 41
+ 0.538764 5 7 ack 40 ------- 1 2.0 4.0 14 29
- 0.538764 5 7 ack 40 ------- 1 2.0 4.0 14 29
+ 0.539376 4 7 tcp 1040 ------- 1 4.0 2.0 15 30
- 0.539376 4 7 tcp 1040 ------- 1 4.0 2.0 15 30
+ 0.539376 4 7 tcp 1040 ------- 1 4.0 2.0 16 31
+ 0.539984 4 7 tcp 1040 ------- 1 4.0 2.0 17 32
+ 0.539984 4 7 tcp 1040 ------- 1 4.0 2.0 18 33
r 0.540104 7 4 ack 40 ------- 1 2.0 4.0 13 28
h 0.540104 4 7 tcp 1040 ------- 1 4.0 2.0 27 42
h 0.540104 4 7 tcp 1040 ------- 1 4.0 2.0 28 43
+ 0.540592 4 7 tcp 1040 ------- 1 4.0 2.0 19 34
+ 0.540592 4 7 tcp 1040 ------- 1 4.0 2.0 20 35
+ 0.5412 4 7 tcp 1040 ------- 1 4.0 2.0 21 36
+ 0.5412 4 7 tcp 1040 ------- 1 4.0 2.0 22 37
+ 0.541808 4 7 tcp 1040 ------- 1 4.0 2.0 23 38
+ 0.541808 4 7 tcp 1040 ------- 1 4.0 2.0 24 39
+ 0.542416 4 7 tcp 1040 ------- 1 4.0 2.0 25 40
+ 0.542416 4 7 tcp 1040 ------- 1 4.0 2.0 26 41
- 0.547904 4 7 tcp 1040 ------- 1 4.0 2.0 16 31
r 0.54928 7 4 ack 40 ------- 1 2.0 4.0 14 29
h 0.54928 4 7 tcp 1040 ------- 1 4.0 2.0 29 44
h 0.54928 4 7 tcp 1040 ------- 1 4.0 2.0 30 45
+ 0.550104 4 7 tcp 1040 ------- 1 4.0 2.0 27 42
+ 0.550104 4 7 tcp 1040 ------- 1 4.0 2.0 28 43
- 0.556432 4 7 tcp 1040 ------- 1 4.0 2.0 17 32
r 0.557812 7 5 tcp 1040 ------- 1 4.0 2.0 15 30
+ 0.557812 5 0 tcp 1040 ------- 1 4.0 2.0 15 30
- 0.557812 5 0 tcp 1040 ------- 1 4.0 2.0 15 30
+ 0.55928 4 7 tcp 1040 ------- 1 4.0 2.0 29 44
+ 0.55928 4 7 tcp 1040 ------- 1 4.0 2.0 30 45
- 0.56496 4 7 tcp 1040 ------- 1 4.0 2.0 18 33
r 0.56634 7 5 tcp 1040 ------- 1 4.0 2.0 16 31
+ 0.56634 5 0 tcp 1040 ------- 1 4.0 2.0 16 31
- 0.56634 5 0 tcp 1040 ------- 1 4.0 2.0 16 31
- 0.573488 4 7 tcp 1040 ------- 1 4.0 2.0 19 34
r 0.574868 7 5 tcp 1040 ------- 1 4.0 2.0 17 32
+ 0.574868 5 0 tcp 1040 ------- 1 4.0 2.0 17 32
- 0.574868 5 0 tcp 1040 ------- 1 4.0 2.0 17 32
r 0.576132 5 0 tcp 1040 ------- 1 4.0 2.0 15 30
h 0.576132 0 6 tcp 1040 ------- 1 4.0 2.0 15 30
- 0.582016 4 7 tcp 1040 ------- 1 4.0 2.0 20 35
r 0.583396 7 5 tcp 1040 ------- 1 4.0 2.0 18 33
+ 0.583396 5 0 tcp 1040 ------- 1 4.0 2.0 18 33
- 0.583396 5 0 tcp 1040 ------- 1 4.0 2.0 18 33
r 0.58466 5 0 tcp 1040 ------- 1 4.0 2.0 16 31
h 0.58466 0 6 tcp 1040 ------- 1 4.0 2.0 16 31
+ 0.586132 0 6 tcp 1040 ------- 1 4.0 2.0 15 30
- 0.586132 0 6 tcp 1040 ------- 1 4.0 2.0 15 30
- 0.590544 4 7 tcp 1040 ------- 1 4.0 2.0 21 36
r 0.591924 7 5 tcp 1040 ------- 1 4.0 2.0 19 34
+ 0.591924 5 0 tcp 1040 ------- 1 4.0 2.0 19 34
- 0.591924 5 0 tcp 1040 ------- 1 4.0 2.0 19 34
r 0.593188 5 0 tcp 1040 ------- 1 4.0 2.0 17 32
h 0.593188 0 6 tcp 1040 ------- 1 4.0 2.0 17 32
+ 0.59466 0 6 tcp 1040 ------- 1 4.0 2.0 16 31
- 0.59466 0 6 tcp 1040 ------- 1 4.0 2.0 16 31
- 0.599072 4 7 tcp 1040 ------- 1 4.0 2.0 22 37
r 0.600452 7 5 tcp 1040 ------- 1 4.0 2.0 20 35
+ 0.600452 5 0 tcp 1040 ------- 1 4.0 2.0 20 35
- 0.600452 5 0 tcp 1040 ------- 1 4.0 2.0 20 35
r 0.601716 5 0 tcp 1040 ------- 1 4.0 2.0 18 33
h 0.601716 0 6 tcp 1040 ------- 1 4.0 2.0 18 33
+ 0.603188 0 6 tcp 1040 ------- 1 4.0 2.0 17 32
- 0.603188 0 6 tcp 1040 ------- 1 4.0 2.0 17 32
r 0.604568 6 2 tcp 1040 ------- 1 4.0 2.0 15 30
h 0.604568 2 6 ack 40 ------- 1 2.0 4.0 15 46
- 0.6076 4 7 tcp 1040 ------- 1 4.0 2.0 23 38
r 0.60898 7 5 tcp 1040 ------- 1 4.0 2.0 21 36
+ 0.60898 5 0 tcp 1040 ------- 1 4.0 2.0 21 36
- 0.60898 5 0 tcp 1040 ------- 1 4.0 2.0 21 36
r 0.610244 5 0 tcp 1040 ------- 1 4.0 2.0 19 34
h 0.610244 0 6 tcp 1040 ------- 1 4.0 2.0 19 34
+ 0.611716 0 6 tcp 1040 ------- 1 4.0 2.0 18 33
- 0.611716 0 6 tcp 1040 ------- 1 4.0 2.0 18 33
r 0.613096 6 2 tcp 1040 ------- 1 4.0 2.0 16 31
h 0.613096 2 6 ack 40 ------- 1 2.0 4.0 16 47
+ 0.614568 2 6 ack 40 ------- 1 2.0 4.0 15 46
- 0.614568 2 6 ack 40 ------- 1 2.0 4.0 15 46
- 0.616128 4 7 tcp 1040 ------- 1 4.0 2.0 24 39
r 0.617508 7 5 tcp 1040 ------- 1 4.0 2.0 22 37
+ 0.617508 5 0 tcp 1040 ------- 1 4.0 2.0 22 37
- 0.617508 5 0 tcp 1040 ------- 1 4.0 2.0 22 37
r 0.618772 5 0 tcp 1040 ------- 1 4.0 2.0 20 35
h 0.618772 0 6 tcp 1040 ------- 1 4.0 2.0 20 35
+ 0.620244 0 6 tcp 1040 ------- 1 4.0 2.0 19 34
- 0.620244 0 6 tcp 1040 ------- 1 4.0 2.0 19 34
r 0.621624 6 2 tcp 1040 ------- 1 4.0 2.0 17 32
h 0.621624 2 6 ack 40 ------- 1 2.0 4.0 17 48
+ 0.623096 2 6 ack 40 ------- 1 2.0 4.0 16 47
- 0.623096 2 6 ack 40 ------- 1 2.0 4.0 16 47
- 0.624656 4 7 tcp 1040 ------- 1 4.0 2.0 25 40
r 0.626036 7 5 tcp 1040 ------- 1 4.0 2.0 23 38
+ 0.626036 5 0 tcp 1040 ------- 1 4.0 2.0 23 38
- 0.626036 5 0 tcp 1040 ------- 1 4.0 2.0 23 38
r 0.6273 5 0 tcp 1040 ------- 1 4.0 2.0 21 36
h 0.6273 0 6 tcp 1040 ------- 1 4.0 2.0 21 36
+ 0.628772 0 6 tcp 1040 ------- 1 4.0 2.0 20 35
r 0.630152 6 2 tcp 1040 ------- 1 4.0 2.0 18 33
h 0.630152 2 6 ack 40 ------- 1 2.0 4.0 18 49
- 0.630572 0 6 tcp 1040 ------- 1 4.0 2.0 20 35
r 0.631028 6 0 ack 40 ------- 1 2.0 4.0 15 46
+ 0.631028 0 5 ack 40 ------- 1 2.0 4.0 15 46
- 0.631028 0 5 ack 40 ------- 1 2.0 4.0 15 46
+ 0.631624 2 6 ack 40 ------- 1 2.0 4.0 17 48
- 0.633184 4 7 tcp 1040 ------- 1 4.0 2.0 26 41
r 0.634564 7 5 tcp 1040 ------- 1 4.0 2.0 24 39
+ 0.634564 5 0 tcp 1040 ------- 1 4.0 2.0 24 39
- 0.634564 5 0 tcp 1040 ------- 1 4.0 2.0 24 39
r 0.635828 5 0 tcp 1040 ------- 1 4.0 2.0 22 37
h 0.635828 0 6 tcp 1040 ------- 1 4.0 2.0 22 37
+ 0.6373 0 6 tcp 1040 ------- 1 4.0 2.0 21 36
- 0.639876 0 6 tcp 1040 ------- 1 4.0 2.0 21 36
+ 0.640152 2 6 ack 40 ------- 1 2.0 4.0 18 49
r 0.64048 6 2 tcp 1040 ------- 1 4.0 2.0 19 34
h 0.64048 2 6 ack 40 ------- 1 2.0 4.0 19 50
r 0.641348 0 5 ack 40 ------- 1 2.0 4.0 15 46
h 0.641348 5 7 ack 40 ------- 1 2.0 4.0 15 46
- 0.641712 4 7 tcp 1040 ------- 1 4.0 2.0 27 42
r 0.643092 7 5 tcp 1040 ------- 1 4.0 2.0 25 40
+ 0.643092 5 0 tcp 1040 ------- 1 4.0 2.0 25 40
- 0.643092 5 0 tcp 1040 ------- 1 4.0 2.0 25 40
r 0.644356 5 0 tcp 1040 ------- 1 4.0 2.0 23 38
h 0.644356 0 6 tcp 1040 ------- 1 4.0 2.0 23 38
+ 0.645828 0 6 tcp 1040 ------- 1 4.0 2.0 22 37
- 0.649052 0 6 tcp 1040 ------- 1 4.0 2.0 22 37
r 0.649784 6 2 tcp 1040 ------- 1 4.0 2.0 20 35
h 0.649784 2 6 ack 40 ------- 1 2.0 4.0 20 51
- 0.65024 4 7 tcp 1040 ------- 1 4.0 2.0 28 43
+ 0.65048 2 6 ack 40 ------- 1 2.0 4.0 19 50
+ 0.651348 5 7 ack 40 ------- 1 2.0 4.0 15 46
- 0.651348 5 7 ack 40 ------- 1 2.0 4.0 15 46
r 0.65162 7 5 tcp 1040 ------- 1 4.0 2.0 26 41
+ 0.65162 5 0 tcp 1040 ------- 1 4.0 2.0 26 41
- 0.65162 5 0 tcp 1040 ------- 1 4.0 2.0 26 41
r 0.652884 5 0 tcp 1040 ------- 1 4.0 2.0 24 39
h 0.652884 0 6 tcp 1040 ------- 1 4.0 2.0 24 39
+ 0.654356 0 6 tcp 1040 ------- 1 4.0 2.0 23 38
- 0.657716 0 6 tcp 1040 ------- 1 4.0 2.0 23 38
- 0.658768 4 7 tcp 1040 ------- 1 4.0 2.0 29 44
r 0.65896 6 2 tcp 1040 ------- 1 4.0 2.0 21 36
h 0.65896 2 6 ack 40 ------- 1 2.0 4.0 21 52
+ 0.659784 2 6 ack 40 ------- 1 2.0 4.0 20 51
r 0.660148 7 5 tcp 1040 ------- 1 4.0 2.0 27 42
+ 0.660148 5 0 tcp 1040 ------- 1 4.0 2.0 27 42
- 0.660148 5 0 tcp 1040 ------- 1 4.0 2.0 27 42
r 0.661412 5 0 tcp 1040 ------- 1 4.0 2.0 25 40
h 0.661412 0 6 tcp 1040 ------- 1 4.0 2.0 25 40
+ 0.662884 0 6 tcp 1040 ------- 1 4.0 2.0 24 39
- 0.666892 0 6 tcp 1040 ------- 1 4.0 2.0 24 39
r 0.667624 6 2 tcp 1040 ------- 1 4.0 2.0 22 37
h 0.667624 2 6 ack 40 ------- 1 2.0 4.0 22 53
r 0.668676 7 5 tcp 1040 ------- 1 4.0 2.0 28 43
+ 0.668676 5 0 tcp 1040 ------- 1 4.0 2.0 28 43
- 0.668676 5 0 tcp 1040 ------- 1 4.0 2.0 28 43
+ 0.66896 2 6 ack 40 ------- 1 2.0 4.0 21 52
- 0.669096 4 7 tcp 1040 ------- 1 4.0 2.0 30 45
r 0.66994 5 0 tcp 1040 ------- 1 4.0 2.0 26 41
h 0.66994 0 6 tcp 1040 ------- 1 4.0 2.0 26 41
r 0.670064 7 4 ack 40 ------- 1 2.0 4.0 15 46
h 0.670064 4 7 tcp 1040 ------- 1 4.0 2.0 31 54
h 0.670064 4 7 tcp 1040 ------- 1 4.0 2.0 32 55
+ 0.671412 0 6 tcp 1040 ------- 1 4.0 2.0 25 40
- 0.676068 0 6 tcp 1040 ------- 1 4.0 2.0 25 40
r 0.6768 6 2 tcp 1040 ------- 1 4.0 2.0 23 38
h 0.6768 2 6 ack 40 ------- 1 2.0 4.0 23 56
+ 0.677624 2 6 ack 40 ------- 1 2.0 4.0 22 53
r 0.678468 5 0 tcp 1040 ------- 1 4.0 2.0 27 42
h 0.678468 0 6 tcp 1040 ------- 1 4.0 2.0 27 42
r 0.679004 7 5 tcp 1040 ------- 1 4.0 2.0 29 44
+ 0.679004 5 0 tcp 1040 ------- 1 4.0 2.0 29 44
- 0.679004 5 0 tcp 1040 ------- 1 4.0 2.0 29 44
+ 0.67994 0 6 tcp 1040 ------- 1 4.0 2.0 26 41
+ 0.680064 4 7 tcp 1040 ------- 1 4.0 2.0 31 54
- 0.680064 4 7 tcp 1040 ------- 1 4.0 2.0 31 54
+ 0.680064 4 7 tcp 1040 ------- 1 4.0 2.0 32 55
- 0.684596 0 6 tcp 1040 ------- 1 4.0 2.0 26 41
r 0.685976 6 2 tcp 1040 ------- 1 4.0 2.0 24 39
h 0.685976 2 6 ack 40 ------- 1 2.0 4.0 24 57
+ 0.6868 2 6 ack 40 ------- 1 2.0 4.0 23 56
r 0.686996 5 0 tcp 1040 ------- 1 4.0 2.0 28 43
h 0.686996 0 6 tcp 1040 ------- 1 4.0 2.0 28 43
r 0.687532 7 5 tcp 1040 ------- 1 4.0 2.0 30 45
+ 0.687532 5 0 tcp 1040 ------- 1 4.0 2.0 30 45
- 0.687532 5 0 tcp 1040 ------- 1 4.0 2.0 30 45
+ 0.688468 0 6 tcp 1040 ------- 1 4.0 2.0 27 42
- 0.688592 4 7 tcp 1040 ------- 1 4.0 2.0 32 55
- 0.693124 0 6 tcp 1040 ------- 1 4.0 2.0 27 42
r 0.694504 6 2 tcp 1040 ------- 1 4.0 2.0 25 40
h 0.694504 2 6 ack 40 ------- 1 2.0 4.0 25 58
+ 0.695976 2 6 ack 40 ------- 1 2.0 4.0 24 57
+ 0.696996 0 6 tcp 1040 ------- 1 4.0 2.0 28 43
r 0.697324 5 0 tcp 1040 ------- 1 4.0 2.0 29 44
h 0.697324 0 6 tcp 1040 ------- 1 4.0 2.0 29 44
r 0.6985 7 5 tcp 1040 ------- 1 4.0 2.0 31 54
+ 0.6985 5 0 tcp 1040 ------- 1 4.0 2.0 31 54
- 0.6985 5 0 tcp 1040 ------- 1 4.0 2.0 31 54
h 0.7 1 6 tcp 40 ------- 2 1.0 5.0 0 59
- 0.701652 0 6 tcp 1040 ------- 1 4.0 2.0 28 43
r 0.703032 6 2 tcp 1040 ------- 1 4.0 2.0 26 41
h 0.703032 2 6 ack 40 ------- 1 2.0 4.0 26 60
+ 0.704504 2 6 ack 40 ------- 1 2.0 4.0 25 58
r 0.705852 5 0 tcp 1040 ------- 1 4.0 2.0 30 45
h 0.705852 0 6 tcp 1040 ------- 1 4.0 2.0 30 45
r 0.707028 7 5 tcp 1040 ------- 1 4.0 2.0 32 55
+ 0.707028 5 0 tcp 1040 ------- 1 4.0 2.0 32 55
- 0.707028 5 0 tcp 1040 ------- 1 4.0 2.0 32 55
+ 0.707324 0 6 tcp 1040 ------- 1 4.0 2.0 29 44
+ 0.71 1 6 tcp 40 ------- 2 1.0 5.0 0 59
- 0.71 1 6 tcp 40 ------- 2 1.0 5.0 0 59
- 0.710828 0 6 tcp 1040 ------- 1 4.0 2.0 29 44
r 0.71156 6 2 tcp 1040 ------- 1 4.0 2.0 27 42
h 0.71156 2 6 ack 40 ------- 1 2.0 4.0 27 61
+ 0.713032 2 6 ack 40 ------- 1 2.0 4.0 26 60
+ 0.715852 0 6 tcp 1040 ------- 1 4.0 2.0 30 45
r 0.71682 5 0 tcp 1040 ------- 1 4.0 2.0 31 54
h 0.71682 0 6 tcp 1040 ------- 1 4.0 2.0 31 54
- 0.720132 0 6 tcp 1040 ------- 1 4.0 2.0 30 45
r 0.720736 6 2 tcp 1040 ------- 1 4.0 2.0 28 43
h 0.720736 2 6 ack 40 ------- 1 2.0 4.0 28 62
+ 0.72156 2 6 ack 40 ------- 1 2.0 4.0 27 61
r 0.725348 5 0 tcp 1040 ------- 1 4.0 2.0 32 55
h 0.725348 0 6 tcp 1040 ------- 1 4.0 2.0 32 55
+ 0.72682 0 6 tcp 1040 ------- 1 4.0 2.0 31 54
- 0.729404 0 6 tcp 1040 ------- 1 4.0 2.0 31 54
r 0.73004 6 2 tcp 1040 ------- 1 4.0 2.0 29 44
h 0.73004 2 6 ack 40 ------- 1 2.0 4.0 29 63
+ 0.730736 2 6 ack 40 ------- 1 2.0 4.0 28 62
r 0.73078 6 0 tcp 40 ------- 2 1.0 5.0 0 59
+ 0.73078 0 5 tcp 40 ------- 2 1.0 5.0 0 59
- 0.73078 0 5 tcp 40 ------- 2 1.0 5.0 0 59
+ 0.735348 0 6 tcp 1040 ------- 1 4.0 2.0 32 55
- 0.737932 0 6 tcp 1040 ------- 1 4.0 2.0 32 55
r 0.739312 6 2 tcp 1040 ------- 1 4.0 2.0 30 45
h 0.739312 2 6 ack 40 ------- 1 2.0 4.0 30 64
+ 0.74004 2 6 ack 40 ------- 1 2.0 4.0 29 63
r 0.7411 0 5 tcp 40 ------- 2 1.0 5.0 0 59
+ 0.7411 5 0 ack 40 ------- 2 5.0 1.0 0 65
- 0.7411 5 0 ack 40 ------- 2 5.0 1.0 0 65
r 0.74784 6 2 tcp 1040 ------- 1 4.0 2.0 31 54
h 0.74784 2 6 ack 40 ------- 1 2.0 4.0 31 66
+ 0.749312 2 6 ack 40 ------- 1 2.0 4.0 30 64
r 0.75142 5 0 ack 40 ------- 2 5.0 1.0 0 65
h 0.75142 0 6 ack 40 ------- 2 5.0 1.0 0 65
r 0.757016 6 2 tcp 1040 ------- 1 4.0 2.0 32 55
h 0.757016 2 6 ack 40 ------- 1 2.0 4.0 32 67
+ 0.75784 2 6 ack 40 ------- 1 2.0 4.0 31 66
+ 0.76142 0 6 ack 40 ------- 2 5.0 1.0 0 65
- 0.76142 0 6 ack 40 ------- 2 5.0 1.0 0 65
+ 0.767016 2 6 ack 40 ------- 1 2.0 4.0 32 67
r 0.771936 6 1 ack 40 ------- 2 5.0 1.0 0 65
h 0.771936 1 6 tcp 1040 ------- 2 1.0 5.0 1 68
h 0.771936 1 6 tcp 1040 ------- 2 1.0 5.0 2 69
+ 0.781936 1 6 tcp 1040 ------- 2 1.0 5.0 1 68
- 0.781936 1 6 tcp 1040 ------- 2 1.0 5.0 1 68
+ 0.781936 1 6 tcp 1040 ------- 2 1.0 5.0 2 69
- 0.790464 1 6 tcp 1040 ------- 2 1.0 5.0 2 69
r 0.800372 6 0 tcp 1040 ------- 2 1.0 5.0 1 68
+ 0.800372 0 5 tcp 1040 ------- 2 1.0 5.0 1 68
- 0.800372 0 5 tcp 1040 ------- 2 1.0 5.0 1 68
r 0.8089 6 0 tcp 1040 ------- 2 1.0 5.0 2 69
+ 0.8089 0 5 tcp 1040 ------- 2 1.0 5.0 2 69
- 0.8089 0 5 tcp 1040 ------- 2 1.0 5.0 2 69
r 0.818692 0 5 tcp 1040 ------- 2 1.0 5.0 1 68
+ 0.818692 5 0 ack 40 ------- 2 5.0 1.0 1 70
- 0.818692 5 0 ack 40 ------- 2 5.0 1.0 1 70
r 0.82722 0 5 tcp 1040 ------- 2 1.0 5.0 2 69
+ 0.82722 5 0 ack 40 ------- 2 5.0 1.0 2 71
- 0.82722 5 0 ack 40 ------- 2 5.0 1.0 2 71
r 0.829012 5 0 ack 40 ------- 2 5.0 1.0 1 70
h 0.829012 0 6 ack 40 ------- 2 5.0 1.0 1 70
- 0.837488 2 6 ack 40 ------- 1 2.0 4.0 17 48
r 0.83754 5 0 ack 40 ------- 2 5.0 1.0 2 71
h 0.83754 0 6 ack 40 ------- 2 5.0 1.0 2 71
- 0.838096 2 6 ack 40 ------- 1 2.0 4.0 18 49
- 0.838704 2 6 ack 40 ------- 1 2.0 4.0 19 50
+ 0.839012 0 6 ack 40 ------- 2 5.0 1.0 1 70
- 0.839012 0 6 ack 40 ------- 2 5.0 1.0 1 70
- 0.839312 2 6 ack 40 ------- 1 2.0 4.0 20 51
- 0.840664 2 6 ack 40 ------- 1 2.0 4.0 21 52
- 0.841272 2 6 ack 40 ------- 1 2.0 4.0 22 53
- 0.84188 2 6 ack 40 ------- 1 2.0 4.0 23 56
- 0.842488 2 6 ack 40 ------- 1 2.0 4.0 24 57
- 0.843096 2 6 ack 40 ------- 1 2.0 4.0 25 58
- 0.843704 2 6 ack 40 ------- 1 2.0 4.0 26 60
- 0.844312 2 6 ack 40 ------- 1 2.0 4.0 27 61
- 0.84492 2 6 ack 40 ------- 1 2.0 4.0 28 62
- 0.845528 2 6 ack 40 ------- 1 2.0 4.0 29 63
- 0.846136 2 6 ack 40 ------- 1 2.0 4.0 30 64
- 0.846744 2 6 ack 40 ------- 1 2.0 4.0 31 66
- 0.847352 2 6 ack 40 ------- 1 2.0 4.0 32 67
r 0.847396 6 0 ack 40 ------- 1 2.0 4.0 16 47
+ 0.847396 0 5 ack 40 ------- 1 2.0 4.0 16 47
- 0.847396 0 5 ack 40 ------- 1 2.0 4.0 16 47
+ 0.84754 0 6 ack 40 ------- 2 5.0 1.0 2 71
- 0.84754 0 6 ack 40 ------- 2 5.0 1.0 2 71
r 0.848004 6 0 ack 40 ------- 1 2.0 4.0 17 48
+ 0.848004 0 5 ack 40 ------- 1 2.0 4.0 17 48
- 0.848004 0 5 ack 40 ------- 1 2.0 4.0 17 48
r 0.848612 6 0 ack 40 ------- 1 2.0 4.0 18 49
+ 0.848612 0 5 ack 40 ------- 1 2.0 4.0 18 49
- 0.848612 0 5 ack 40 ------- 1 2.0 4.0 18 49
r 0.84922 6 0 ack 40 ------- 1 2.0 4.0 19 50
+ 0.84922 0 5 ack 40 ------- 1 2.0 4.0 19 50
- 0.84922 0 5 ack 40 ------- 1 2.0 4.0 19 50
r 0.84996 6 1 ack 40 ------- 2 5.0 1.0 1 70
h 0.84996 1 6 tcp 1040 ------- 2 1.0 5.0 3 72
h 0.84996 1 6 tcp 1040 ------- 2 1.0 5.0 4 73
r 0.850572 6 0 ack 40 ------- 1 2.0 4.0 20 51
+ 0.850572 0 5 ack 40 ------- 1 2.0 4.0 20 51
- 0.850572 0 5 ack 40 ------- 1 2.0 4.0 20 51