V -t * -v 1.0a5 -a 0
A -t * -n 1 -p 0 -o 0x7fffffff -c 30 -a 1
A -t * -h 1 -m 1073741823 -s 0
n -t * -a 4 -s 4 -S UP -v circle -c black -i black
n -t * -a 0 -s 0 -S UP -v circle -c black -i black
n -t * -a 5 -s 5 -S UP -v circle -c black -i black
n -t * -a 1 -s 1 -S UP -v circle -c black -i black
n -t * -a 2 -s 2 -S UP -v circle -c black -i black
n -t * -a 3 -s 3 -S UP -v circle -c black -i black
l -t * -s 0 -d 5 -S UP -r 1000000 -D 0.01 -c black
X -t * -n 6 -r 1Mb -D 10ms -o left
L -t * -s 6 -d 0 -o up
L -t * -s 6 -d 1 -o down
L -t * -s 6 -d 2 -o up
X -t * -n 7 -r 1Mb -D 10ms -o left
L -t * -s 7 -d 5 -o up
L -t * -s 7 -d 3 -o down
L -t * -s 7 -d 4 -o up
h -t 0 -s 4 -d 7 -p tcp -e 40 -c 1 -i 0 -a 1 -x {4.0 2.0 0 ------- null}
+ -t 0.01 -s 4 -d 7 -p tcp -e 40 -c 1 -i 0 -a 1 -x {4.0 2.0 0 ------- null}
- -t 0.01 -s 4 -d 7 -p tcp -e 40 -c 1 -i 0 -a 1 -x {4.0 2.0 0 ------- null}
h -t 0.01 -s 4 -d 7 -p tcp -e 40 -c 1 -i 0 -a 1 -x {4.0 2.0 -1 ------- null}
r -t 0.020516 -s 7 -d 5 -p tcp -e 40 -c 1 -i 0 -a 1 -x {4.0 2.0 0 ------- null}
+ -t 0.020516 -s 5 -d 0 -p tcp -e 40 -c 1 -i 0 -a 1 -x {4.0 2.0 0 ------- null}
- -t 0.020516 -s 5 -d 0 -p tcp -e 40 -c 1 -i 0 -a 1 -x {4.0 2.0 0 ------- null}
h -t 0.020516 -s 5 -d 0 -p tcp -e 40 -c 1 -i 0 -a 1 -x {4.0 2.0 -1 ------- null}
r -t 0.030836 -s 5 -d 0 -p tcp -e 40 -c 1 -i 0 -a 1 -x {4.0 2.0 0 ------- null}
h -t 0.030836 -s 0 -d 6 -p tcp -e 40 -c 1 -i 0 -a 1 -x {4.0 2.0 0 ------- null}
+ -t 0.040836 -s 0 -d 6 -p tcp -e 40 -c 1 -i 0 -a 1 -x {4.0 2.0 0 ------- null}
- -t 0.040836 -s 0 -d 6 -p tcp -e 40 -c 1 -i 0 -a 1 -x {4.0 2.0 0 ------- null}
h -t 0.040836 -s 0 -d 6 -p tcp -e 40 -c 1 -i 0 -a 1 -x {4.0 2.0 -1 ------- null}
r -t 0.051352 -s 6 -d 2 -p tcp -e 40 -c 1 -i 0 -a 1 -x {4.0 2.0 0 ------- null}
h -t 0.051352 -s 2 -d 6 -p ack -e 40 -c 1 -i 1 -a 1 -x {2.0 4.0 0 ------- null}
+ -t 0.061352 -s 2 -d 6 -p ack -e 40 -c 1 -i 1 -a 1 -x {2.0 4.0 0 ------- null}
- -t 0.061352 -s 2 -d 6 -p ack -e 40 -c 1 -i 1 -a 1 -x {2.0 4.0 0 ------- null}
h -t 0.061352 -s 2 -d 6 -p ack -e 40 -c 1 -i 1 -a 1 -x {2.0 4.0 -1 ------- null}
r -t 0.071868 -s 6 -d 0 -p ack -e 40 -c 1 -i 1 -a 1 -x {2.0 4.0 0 ------- null}
+ -t 0.071868 -s 0 -d 5 -p ack -e 40 -c 1 -i 1 -a 1 -x {2.0 4.0 0 ------- null}
- -t 0.071868 -s 0 -d 5 -p ack -e 40 -c 1 -i 1 -a 1 -x {2.0 4.0 0 ------- null}
h -t 0.071868 -s 0 -d 5 -p ack -e 40 -c 1 -i 1 -a 1 -x {2.0 4.0 -1 ------- null}
r -t 0.082188 -s 0 -d 5 -p ack -e 40 -c 1 -i 1 -a 1 -x {2.0 4.0 0 ------- null}
h -t 0.082188 -s 5 -d 7 -p ack -e 40 -c 1 -i 1 -a 1 -x {2.0 4.0 0 ------- null}
+ -t 0.092188 -s 5 -d 7 -p ack -e 40 -c 1 -i 1 -a 1 -x {2.0 4.0 0 ------- null}
- -t 0.092188 -s 5 -d 7 -p ack -e 40 -c 1 -i 1 -a 1 -x {2.0 4.0 0 ------- null}
h -t 0.092188 -s 5 -d 7 -p ack -e 40 -c 1 -i 1 -a 1 -x {2.0 4.0 -1 ------- null}
r -t 0.102704 -s 7 -d 4 -p ack -e 40 -c 1 -i 1 -a 1 -x {2.0 4.0 0 ------- null}
h -t 0.102704 -s 4 -d 7 -p tcp -e 1040 -c 1 -i 2 -a 1 -x {4.0 2.0 1 ------- null}
h -t 0.102704 -s 4 -d 7 -p tcp -e 1040 -c 1 -i 3 -a 1 -x {4.0 2.0 2 ------- null}
+ -t 0.112704 -s 4 -d 7 -p tcp -e 1040 -c 1 -i 2 -a 1 -x {4.0 2.0 1 ------- null}
- -t 0.112704 -s 4 -d 7 -p tcp -e 1040 -c 1 -i 2 -a 1 -x {4.0 2.0 1 ------- null}
h -t 0.112704 -s 4 -d 7 -p tcp -e 1040 -c 1 -i 2 -a 1 -x {4.0 2.0 -1 ------- null}
+ -t 0.112704 -s 4 -d 7 -p tcp -e 1040 -c 1 -i 3 -a 1 -x {4.0 2.0 2 ------- null}
- -t 0.121232 -s 4 -d 7 -p tcp -e 1040 -c 1 -i 3 -a 1 -x {4.0 2.0 2 ------- null}
h -t 0.121232 -s 4 -d 7 -p tcp -e 1040 -c 1 -i 3 -a 1 -x {4.0 2.0 -1 ------- null}
r -t 0.13114 -s 7 -d 5 -p tcp -e 1040 -c 1 -i 2 -a 1 -x {4.0 2.0 1 ------- null}
+ -t 0.13114 -s 5 -d 0 -p tcp -e 1040 -c 1 -i 2 -a 1 -x {4.0 2.0 1 ------- null}
- -t 0.13114 -s 5 -d 0 -p tcp -e 1040 -c 1 -i 2 -a 1 -x {4.0 2.0 1 ------- null}
h -t 0.13114 -s 5 -d 0 -p tcp -e 1040 -c 1 -i 2 -a 1 -x {4.0 2.0 -1 ------- null}
r -t 0.139668 -s 7 -d 5 -p tcp -e 1040 -c 1 -i 3 -a 1 -x {4.0 2.0 2 ------- null}
+ -t 0.139668 -s 5 -d 0 -p tcp -e 1040 -c 1 -i 3 -a 1 -x {4.0 2.0 2 ------- null}
- -t 0.139668 -s 5 -d 0 -p tcp -e 1040 -c 1 -i 3 -a 1 -x {4.0 2.0 2 ------- null}
h -t 0.139668 -s 5 -d 0 -p tcp -e 1040 -c 1 -i 3 -a 1 -x {4.0 2.0 -1 ------- null}
r -t 0.14946 -s 5 -d 0 -p tcp -e 1040 -c 1 -i 2 -a 1 -x {4.0 2.0 1 ------- null}
h -t 0.14946 -s 0 -d 6 -p tcp -e 1040 -c 1 -i 2 -a 1 -x {4.0 2.0 1 ------- null}
r -t 0.157988 -s 5 -d 0 -p tcp -e 1040 -c 1 -i 3 -a 1 -x {4.0 2.0 2 ------- null}
h -t 0.157988 -s 0 -d 6 -p tcp -e 1040 -c 1 -i 3 -a 1 -x {4.0 2.0 2 ------- null}
+ -t 0.15946 -s 0 -d 6 -p tcp -e 1040 -c 1 -i 2 -a 1 -x {4.0 2.0 1 ------- null}
- -t 0.15946 -s 0 -d 6 -p tcp -e 1040 -c 1 -i 2 -a 1 -x {4.0 2.0 1 ------- null}
h -t 0.15946 -s 0 -d 6 -p tcp -e 1040 -c 1 -i 2 -a 1 -x {4.0 2.0 -1 ------- null}
+ -t 0.167988 -s 0 -d 6 -p tcp -e 1040 -c 1 -i 3 -a 1 -x {4.0 2.0 2 ------- null}
- -t 0.167988 -s 0 -d 6 -p tcp -e 1040 -c 1 -i 3 -a 1 -x {4.0 2.0 2 ------- null}
h -t 0.167988 -s 0 -d 6 -p tcp -e 1040 -c 1 -i 3 -a 1 -x {4.0 2.0 -1 ------- null}
r -t 0.177896 -s 6 -d 2 -p tcp -e 1040 -c 1 -i 2 -a 1 -x {4.0 2.0 1 ------- null}
h -t 0.177896 -s 2 -d 6 -p ack -e 40 -c 1 -i 4 -a 1 -x {2.0 4.0 1 ------- null}
r -t 0.186424 -s 6 -d 2 -p tcp -e 1040 -c 1 -i 3 -a 1 -x {4.0 2.0 2 ------- null}
h -t 0.186424 -s 2 -d 6 -p ack -e 40 -c 1 -i 5 -a 1 -x {2.0 4.0 2 ------- null}
+ -t 0.187896 -s 2 -d 6 -p ack -e 40 -c 1 -i 4 -a 1 -x {2.0 4.0 1 ------- null}
- -t 0.187896 -s 2 -d 6 -p ack -e 40 -c 1 -i 4 -a 1 -x {2.0 4.0 1 ------- null}
h -t 0.187896 -s 2 -d 6 -p ack -e 40 -c 1 -i 4 -a 1 -x {2.0 4.0 -1 ------- null}
+ -t 0.196424 -s 2 -d 6 -p ack -e 40 -c 1 -i 5 -a 1 -x {2.0 4.0 2 ------- null}
- -t 0.196424 -s 2 -d 6 -p ack -e 40 -c 1 -i 5 -a 1 -x {2.0 4.0 2 ------- null}
h -t 0.196424 -s 2 -d 6 -p ack -e 40 -c 1 -i 5 -a 1 -x {2.0 4.0 -1 ------- null}
r -t 0.198412 -s 6 -d 0 -p ack -e 40 -c 1 -i 4 -a 1 -x {2.0 4.0 1 ------- null}
+ -t 0.198412 -s 0 -d 5 -p ack -e 40 -c 1 -i 4 -a 1 -x {2.0 4.0 1 ------- null}
- -t 0.198412 -s 0 -d 5 -p ack -e 40 -c 1 -i 4 -a 1 -x {2.0 4.0 1 ------- null}
h -t 0.198412 -s 0 -d 5 -p ack -e 40 -c 1 -i 4 -a 1 -x {2.0 4.0 -1 ------- null}
r -t 0.20694 -s 6 -d 0 -p ack -e 40 -c 1 -i 5 -a 1 -x {2.0 4.0 2 ------- null}
+ -t 0.20694 -s 0 -d 5 -p ack -e 40 -c 1 -i 5 -a 1 -x {2.0 4.0 2 ------- null}
- -t 0.20694 -s 0 -d 5 -p ack -e 40 -c 1 -i 5 -a 1 -x {2.0 4.0 2 ------- null}
h -t 0.20694 -s 0 -d 5 -p ack -e 40 -c 1 -i 5 -a 1 -x {2.0 4.0 -1 ------- null}
r -t 0.208732 -s 0 -d 5 -p ack -e 40 -c 1 -i 4 -a 1 -x {2.0 4.0 1 ------- null}
h -t 0.208732 -s 5 -d 7 -p ack -e 40 -c 1 -i 4 -a 1 -x {2.0 4.0 1 ------- null}
r -t 0.21726 -s 0 -d 5 -p ack -e 40 -c 1 -i 5 -a 1 -x {2.0 4.0 2 ------- null}
h -t 0.21726 -s 5 -d 7 -p ack -e 40 -c 1 -i 5 -a 1 -x {2.0 4.0 2 ------- null}
+ -t 0.218732 -s 5 -d 7 -p ack -e 40 -c 1 -i 4 -a 1 -x {2.0 4.0 1 ------- null}
- -t 0.218732 -s 5 -d 7 -p ack -e 40 -c 1 -i 4 -a 1 -x {2.0 4.0 1 ------- null}
h -t 0.218732 -s 5 -d 7 -p ack -e 40 -c 1 -i 4 -a 1 -x {2.0 4.0 -1 ------- null}
+ -t 0.22726 -s 5 -d 7 -p ack -e 40 -c 1 -i 5 -a 1 -x {2.0 4.0 2 ------- null}
- -t 0.22726 -s 5 -d 7 -p ack -e 40 -c 1 -i 5 -a 1 -x {2.0 4.0 2 ------- null}
h -t 0.22726 -s 5 -d 7 -p ack -e 40 -c 1 -i 5 -a 1 -x {2.0 4.0 -1 ------- null}
r -t 0.229248 -s 7 -d 4 -p ack -e 40 -c 1 -i 4 -a 1 -x {2.0 4.0 1 ------- null}
h -t 0.229248 -s 4 -d 7 -p tcp -e 1040 -c 1 -i 6 -a 1 -x {4.0 2.0 3 ------- null}
h -t 0.229248 -s 4 -d 7 -p tcp -e 1040 -c 1 -i 7 -a 1 -x {4.0 2.0 4 ------- null}
r -t 0.237776 -s 7 -d 4 -p ack -e 40 -c 1 -i 5 -a 1 -x {2.0 4.0 2 ------- null}
h -t 0.237776 -s 4 -d 7 -p tcp -e 1040 -c 1 -i 8 -a 1 -x {4.0 2.0 5 ------- null}
h -t 0.237776 -s 4 -d 7 -p tcp -e 1040 -c 1 -i 9 -a 1 -x {4.0 2.0 6 ------- null}
+ -t 0.239248 -s 4 -d 7 -p tcp -e 1040 -c 1 -i 6 -a 1 -x {4.0 2.0 3 ------- null}
- -t 0.239248 -s 4 -d 7 -p tcp -e 1040 -c 1 -i 6 -a 1 -x {4.0 2.0 3 ------- null}
h -t 0.239248 -s 4 -d 7 -p tcp -e 1040 -c 1 -i 6 -a 1 -x {4.0 2.0 -1 ------- null}
+ -t 0.239248 -s 4 -d 7 -p tcp -e 1040 -c 1 -i 7 -a 1 -x {4.0 2.0 4 ------- null}
+ -t 0.247776 -s 4 -d 7 -p tcp -e 1040 -c 1 -i 8 -a 1 -x {4.0 2.0 5 ------- null}
+ -t 0.247776 -s 4 -d 7 -p tcp -e 1040 -c 1 -i 9 -a 1 -x {4.0 2.0 6 ------- null}
- -t 0.247776 -s 4 -d 7 -p tcp -e 1040 -c 1 -i 7 -a 1 -x {4.0 2.0 4 ------- null}
h -t 0.247776 -s 4 -d 7 -p tcp -e 1040 -c 1 -i 7 -a 1 -x {4.0 2.0 -1 ------- null}
- -t 0.256304 -s 4 -d 7 -p tcp -e 1040 -c 1 -i 8 -a 1 -x {4.0 2.0 5 ------- null}
h -t 0.256304 -s 4 -d 7 -p tcp -e 1040 -c 1 -i 8 -a 1 -x {4.0 2.0 -1 ------- null}
r -t 0.257684 -s 7 -d 5 -p tcp -e 1040 -c 1 -i 6 -a 1 -x {4.0 2.0 3 ------- null}
+ -t 0.257684 -s 5 -d 0 -p tcp -e 1040 -c 1 -i 6 -a 1 -x {4.0 2.0 3 ------- null}
- -t 0.257684 -s 5 -d 0 -p tcp -e 1040 -c 1 -i 6 -a 1 -x {4.0 2.0 3 ------- null}
h -t 0.257684 -s 5 -d 0 -p tcp -e 1040 -c 1 -i 6 -a 1 -x {4.0 2.0 -1 ------- null}
- -t 0.264832 -s 4 -d 7 -p tcp -e 1040 -c 1 -i 9 -a 1 -x {4.0 2.0 6 ------- null}
h -t 0.264832 -s 4 -d 7 -p tcp -e 1040 -c 1 -i 9 -a 1 -x {4.0 2.0 -1 ------- null}
r -t 0.266212 -s 7 -d 5 -p tcp -e 1040 -c 1 -i 7 -a 1 -x {4.0 2.0 4 ------- null}
+ -t 0.266212 -s 5 -d 0 -p tcp -e 1040 -c 1 -i 7 -a 1 -x {4.0 2.0 4 ------- null}
- -t 0.266212 -s 5 -d 0 -p tcp -e 1040 -c 1 -i 7 -a 1 -x {4.0 2.0 4 ------- null}
h -t 0.266212 -s 5 -d 0 -p tcp -e 1040 -c 1 -i 7 -a 1 -x {4.0 2.0 -1 ------- null}
r -t 0.27474 -s 7 -d 5 -p tcp -e 1040 -c 1 -i 8 -a 1 -x {4.0 2.0 5 ------- null}
+ -t 0.27474 -s 5 -d 0 -p tcp -e 1040 -c 1 -i 8 -a 1 -x {4.0 2.0 5 ------- null}
- -t 0.27474 -s 5 -d 0 -p tcp -e 1040 -c 1 -i 8 -a 1 -x {4.0 2.0 5 ------- null}
h -t 0.27474 -s 5 -d 0 -p tcp -e 1040 -c 1 -i 8 -a 1 -x {4.0 2.0 -1 ------- null}
r -t 0.276004 -s 5 -d 0 -p tcp -e 1040 -c 1 -i 6 -a 1 -x {4.0 2.0 3 ------- null}
h -t 0.276004 -s 0 -d 6 -p tcp -e 1040 -c 1 -i 6 -a 1 -x {4.0 2.0 3 ------- null}
r -t 0.283268 -s 7 -d 5 -p tcp -e 1040 -c 1 -i 9 -a 1 -x {4.0 2.0 6 ------- null}
+ -t 0.283268 -s 5 -d 0 -p tcp -e 1040 -c 1 -i 9 -a 1 -x {4.0 2.0 6 ------- null}
- -t 0.283268 -s 5 -d 0 -p tcp -e 1040 -c 1 -i 9 -a 1 -x {4.0 2.0 6 ------- null}
h -t 0.283268 -s 5 -d 0 -p tcp -e 1040 -c 1 -i 9 -a 1 -x {4.0 2.0 -1 ------- null}
r -t 0.284532 -s 5 -d 0 -p tcp -e 1040 -c 1 -i 7 -a 1 -x {4.0 2.0 4 ------- null}
h -t 0.284532 -s 0 -d 6 -p tcp -e 1040 -c 1 -i 7 -a 1 -x {4.0 2.0 4 ------- null}
+ -t 0.286004 -s 0 -d 6 -p tcp -e 1040 -c 1 -i 6 -a 1 -x {4.0 2.0 3 ------- null}
- -t 0.286004 -s 0 -d 6 -p tcp -e 1040 -c 1 -i 6 -a 1 -x {4.0 2.0 3 ------- null}
h -t 0.286004 -s 0 -d 6 -p tcp -e 1040 -c 1 -i 6 -a 1 -x {4.0 2.0 -1 ------- null}
r -t 0.29306 -s 5 -d 0 -p tcp -e 1040 -c 1 -i 8 -a 1 -x {4.0 2.0 5 ------- null}
h -t 0.29306 -s 0 -d 6 -p tcp -e 1040 -c 1 -i 8 -a 1 -x {4.0 2.0 5 ------- null}
+ -t 0.294532 -s 0 -d 6 -p tcp -e 1040 -c 1 -i 7 -a 1 -x {4.0 2.0 4 ------- null}
- -t 0.294532 -s 0 -d 6 -p tcp -e 1040 -c 1 -i 7 -a 1 -x {4.0 2.0 4 ------- null}
h -t 0.294532 -s 0 -d 6 -p tcp -e 1040 -c 1 -i 7 -a 1 -x {4.0 2.0 -1 ------- null}
r -t 0.301588 -s 5 -d 0 -p tcp -e 1040 -c 1 -i 9 -a 1 -x {4.0 2.0 6 ------- null}
h -t 0.301588 -s 0 -d 6 -p tcp -e 1040 -c 1 -i 9 -a 1 -x {4.0 2.0 6 ------- null}
+ -t 0.30306 -s 0 -d 6 -p tcp -e 1040 -c 1 -i 8 -a 1 -x {4.0 2.0 5 ------- null}
- -t 0.30306 -s 0 -d 6 -p tcp -e 1040 -c 1 -i 8 -a 1 -x {4.0 2.0 5 ------- null}
h -t 0.30306 -s 0 -d 6 -p tcp -e 1040 -c 1 -i 8 -a 1 -x {4.0 2.0 -1 ------- null}
r -t 0.30444 -s 6 -d 2 -p tcp -e 1040 -c 1 -i 6 -a 1 -x {4.0 2.0 3 ------- null}
h -t 0.30444 -s 2 -d 6 -p ack -e 40 -c 1 -i 10 -a 1 -x {2.0 4.0 3 ------- null}
+ -t 0.311588 -s 0 -d 6 -p tcp -e 1040 -c 1 -i 9 -a 1 -x {4.0 2.0 6 ------- null}
- -t 0.311588 -s 0 -d 6 -p tcp -e 1040 -c 1 -i 9 -a 1 -x {4.0 2.0 6 ------- null}
h -t 0.311588 -s 0 -d 6 -p tcp -e 1040 -c 1 -i 9 -a 1 -x {4.0 2.0 -1 ------- null}
r -t 0.312968 -s 6 -d 2 -p tcp -e 1040 -c 1 -i 7 -a 1 -x {4.0 2.0 4 ------- null}
h -t 0.312968 -s 2 -d 6 -p ack -e 40 -c 1 -i 11 -a 1 -x {2.0 4.0 4 ------- null}
+ -t 0.31444 -s 2 -d 6 -p ack -e 40 -c 1 -i 10 -a 1 -x {2.0 4.0 3 ------- null}
- -t 0.31444 -s 2 -d 6 -p ack -e 40 -c 1 -i 10 -a 1 -x {2.0 4.0 3 ------- null}
h -t 0.31444 -s 2 -d 6 -p ack -e 40 -c 1 -i 10 -a 1 -x {2.0 4.0 -1 ------- null}
r -t 0.321496 -s 6 -d 2 -p tcp -e 1040 -c 1 -i 8 -a 1 -x {4.0 2.0 5 ------- null}
h -t 0.321496 -s 2 -d 6 -p ack -e 40 -c 1 -i 12 -a 1 -x {2.0 4.0 5 ------- null}
+ -t 0.322968 -s 2 -d 6 -p ack -e 40 -c 1 -i 11 -a 1 -x {2.0 4.0 4 ------- null}
- -t 0.322968 -s 2 -d 6 -p ack -e 40 -c 1 -i 11 -a 1 -x {2.0 4.0 4 ------- null}
h -t 0.322968 -s 2 -d 6 -p ack -e 40 -c 1 -i 11 -a 1 -x {2.0 4.0 -1 ------- null}
r -t 0.330024 -s 6 -d 2 -p tcp -e 1040 -c 1 -i 9 -a 1 -x {4.0 2.0 6 ------- null}
h -t 0.330024 -s 2 -d 6 -p ack -e 40 -c 1 -i 13 -a 1 -x {2.0 4.0 6 ------- null}
r -t 0.330636 -s 6 -d 0 -p ack -e 40 -c 1 -i 10 -a 1 -x {2.0 4.0 3 ------- null}
+ -t 0.330636 -s 0 -d 5 -p ack -e 40 -c 1 -i 10 -a 1 -x {2.0 4.0 3 ------- null}
- -t 0.330636 -s 0 -d 5 -p ack -e 40 -c 1 -i 10 -a 1 -x {2.0 4.0 3 ------- null}
h -t 0.330636 -s 0 -d 5 -p ack -e 40 -c 1 -i 10 -a 1 -x {2.0 4.0 -1 ------- null}
+ -t 0.331496 -s 2 -d 6 -p ack -e 40 -c 1 -i 12 -a 1 -x {2.0 4.0 5 ------- null}
- -t 0.331496 -s 2 -d 6 -p ack -e 40 -c 1 -i 12 -a 1 -x {2.0 4.0 5 ------- null}
h -t 0.331496 -s 2 -d 6 -p ack -e 40 -c 1 -i 12 -a 1 -x {2.0 4.0 -1 ------- null}
r -t 0.333484 -s 6 -d 0 -p ack -e 40 -c 1 -i 11 -a 1 -x {2.0 4.0 4 ------- null}
+ -t 0.333484 -s 0 -d 5 -p ack -e 40 -c 1 -i 11 -a 1 -x {2.0 4.0 4 ------- null}
- -t 0.333484 -s 0 -d 5 -p ack -e 40 -c 1 -i 11 -a 1 -x {2.0 4.0 4 ------- null}
h -t 0.333484 -s 0 -d 5 -p ack -e 40 -c 1 -i 11 -a 1 -x {2.0 4.0 -1 ------- null}
+ -t 0.340024 -s 2 -d 6 -p ack -e 40 -c 1 -i 13 -a 1 -x {2.0 4.0 6 ------- null}
- -t 0.340024 -s 2 -d 6 -p ack -e 40 -c 1 -i 13 -a 1 -x {2.0 4.0 6 ------- null}
h -t 0.340024 -s 2 -d 6 -p ack -e 40 -c 1 -i 13 -a 1 -x {2.0 4.0 -1 ------- null}
r -t 0.340956 -s 0 -d 5 -p ack -e 40 -c 1 -i 10 -a 1 -x {2.0 4.0 3 ------- null}
h -t 0.340956 -s 5 -d 7 -p ack -e 40 -c 1 -i 10 -a 1 -x {2.0 4.0 3 ------- null}
r -t 0.342012 -s 6 -d 0 -p ack -e 40 -c 1 -i 12 -a 1 -x {2.0 4.0 5 ------- null}
+ -t 0.342012 -s 0 -d 5 -p ack -e 40 -c 1 -i 12 -a 1 -x {2.0 4.0 5 ------- null}
- -t 0.342012 -s 0 -d 5 -p ack -e 40 -c 1 -i 12 -a 1 -x {2.0 4.0 5 ------- null}
h -t 0.342012 -s 0 -d 5 -p ack -e 40 -c 1 -i 12 -a 1 -x {2.0 4.0 -1 ------- null}
r -t 0.343804 -s 0 -d 5 -p ack -e 40 -c 1 -i 11 -a 1 -x {2.0 4.0 4 ------- null}
h -t 0.343804 -s 5 -d 7 -p ack -e 40 -c 1 -i 11 -a 1 -x {2.0 4.0 4 ------- null}
r -t 0.35054 -s 6 -d 0 -p ack -e 40 -c 1 -i 13 -a 1 -x {2.0 4.0 6 ------- null}
+ -t 0.35054 -s 0 -d 5 -p ack -e 40 -c 1 -i 13 -a 1 -x {2.0 4.0 6 ------- null}
- -t 0.35054 -s 0 -d 5 -p ack -e 40 -c 1 -i 13 -a 1 -x {2.0 4.0 6 ------- null}
h -t 0.35054 -s 0 -d 5 -p ack -e 40 -c 1 -i 13 -a 1 -x {2.0 4.0 -1 ------- null}
+ -t 0.350956 -s 5 -d 7 -p ack -e 40 -c 1 -i 10 -a 1 -x {2.0 4.0 3 ------- null}
- -t 0.350956 -s 5 -d 7 -p ack -e 40 -c 1 -i 10 -a 1 -x {2.0 4.0 3 ------- null}
h -t 0.350956 -s 5 -d 7 -p ack -e 40 -c 1 -i 10 -a 1 -x {2.0 4.0 -1 ------- null}
r -t 0.352332 -s 0 -d 5 -p ack -e 40 -c 1 -i 12 -a 1 -x {2.0 4.0 5 ------- null}
h -t 0.352332 -s 5 -d 7 -p ack -e 40 -c 1 -i 12 -a 1 -x {2.0 4.0 5 ------- null}
+ -t 0.353804 -s 5 -d 7 -p ack -e 40 -c 1 -i 11 -a 1 -x {2.0 4.0 4 ------- null}
- -t 0.353804 -s 5 -d 7 -p ack -e 40 -c 1 -i 11 -a 1 -x {2.0 4.0 4 ------- null}
h -t 0.353804 -s 5 -d 7 -p ack -e 40 -c 1 -i 11 -a 1 -x {2.0 4.0 -1 ------- null}
r -t 0.36086 -s 0 -d 5 -p ack -e 40 -c 1 -i 13 -a 1 -x {2.0 4.0 6 ------- null}
h -t 0.36086 -s 5 -d 7 -p ack -e 40 -c 1 -i 13 -a 1 -x {2.0 4.0 6 ------- null}
r -t 0.361472 -s 7 -d 4 -p ack -e 40 -c 1 -i 10 -a 1 -x {2.0 4.0 3 ------- null}
h -t 0.361472 -s 4 -d 7 -p tcp -e 1040 -c 1 -i 14 -a 1 -x {4.0 2.0 7 ------- null}
h -t 0.361472 -s 4 -d 7 -p tcp -e 1040 -c 1 -i 15 -a 1 -x {4.0 2.0 8 ------- null}
+ -t 0.362332 -s 5 -d 7 -p ack -e 40 -c 1 -i 12 -a 1 -x {2.0 4.0 5 ------- null}
- -t 0.362332 -s 5 -d 7 -p ack -e 40 -c 1 -i 12 -a 1 -x {2.0 4.0 5 ------- null}
h -t 0.362332 -s 5 -d 7 -p ack -e 40 -c 1 -i 12 -a 1 -x {2.0 4.0 -1 ------- null}
r -t 0.36432 -s 7 -d 4 -p ack -e 40 -c 1 -i 11 -a 1 -x {2.0 4.0 4 ------- null}
h -t 0.36432 -s 4 -d 7 -p tcp -e 1040 -c 1 -i 16 -a 1 -x {4.0 2.0 9 ------- null}
h -t 0.36432 -s 4 -d 7 -p tcp -e 1040 -c 1 -i 17 -a 1 -x {4.0 2.0 10 ------- null}
+ -t 0.37086 -s 5 -d 7 -p ack -e 40 -c 1 -i 13 -a 1 -x {2.0 4.0 6 ------- null}
- -t 0.37086 -s 5 -d 7 -p ack -e 40 -c 1 -i 13 -a 1 -x {2.0 4.0 6 ------- null}
h -t 0.37086 -s 5 -d 7 -p ack -e 40 -c 1 -i 13 -a 1 -x {2.0 4.0 -1 ------- null}
+ -t 0.371472 -s 4 -d 7 -p tcp -e 1040 -c 1 -i 14 -a 1 -x {4.0 2.0 7 ------- null}
- -t 0.371472 -s 4 -d 7 -p tcp -e 1040 -c 1 -i 14 -a 1 -x {4.0 2.0 7 ------- null}
h -t 0.371472 -s 4 -d 7 -p tcp -e 1040 -c 1 -i 14 -a 1 -x {4.0 2.0 -1 ------- null}
+ -t 0.371472 -s 4 -d 7 -p tcp -e 1040 -c 1 -i 15 -a 1 -x {4.0 2.0 8 ------- null}
r -t 0.372848 -s 7 -d 4 -p ack -e 40 -c 1 -i 12 -a 1 -x {2.0 4.0 5 ------- null}
h -t 0.372848 -s 4 -d 7 -p tcp -e 1040 -c 1 -i 18 -a 1 -x {4.0 2.0 11 ------- null}
h -t 0.372848 -s 4 -d 7 -p tcp -e 1040 -c 1 -i 19 -a 1 -x {4.0 2.0 12 ------- null}
+ -t 0.37432 -s 4 -d 7 -p tcp -e 1040 -c 1 -i 16 -a 1 -x {4.0 2.0 9 ------- null}
+ -t 0.37432 -s 4 -d 7 -p tcp -e 1040 -c 1 -i 17 -a 1 -x {4.0 2.0 10 ------- null}
- -t 0.38 -s 4 -d 7 -p tcp -e 1040 -c 1 -i 15 -a 1 -x {4.0 2.0 8 ------- null}
h -t 0.38 -s 4 -d 7 -p tcp -e 1040 -c 1 -i 15 -a 1 -x {4.0 2.0 -1 ------- null}
r -t 0.381376 -s 7 -d 4 -p ack -e 40 -c 1 -i 13 -a 1 -x {2.0 4.0 6 ------- null}
h -t 0.381376 -s 4 -d 7 -p tcp -e 1040 -c 1 -i 20 -a 1 -x {4.0 2.0 13 ------- null}
h -t 0.381376 -s 4 -d 7 -p tcp -e 1040 -c 1 -i 21 -a 1 -x {4.0 2.0 14 ------- null}
+ -t 0.382848 -s 4 -d 7 -p tcp -e 1040 -c 1 -i 18 -a 1 -x {4.0 2.0 11 ------- null}
+ -t 0.382848 -s 4 -d 7 -p tcp -e 1040 -c 1 -i 19 -a 1 -x {4.0 2.0 12 ------- null}
- -t 0.388528 -s 4 -d 7 -p tcp -e 1040 -c 1 -i 16 -a 1 -x {4.0 2.0 9 ------- null}
h -t 0.388528 -s 4 -d 7 -p tcp -e 1040 -c 1 -i 16 -a 1 -x {4.0 2.0 -1 ------- null}
r -t 0.389908 -s 7 -d 5 -p tcp -e 1040 -c 1 -i 14 -a 1 -x {4.0 2.0 7 ------- null}
+ -t 0.389908 -s 5 -d 0 -p tcp -e 1040 -c 1 -i 14 -a 1 -x {4.0 2.0 7 ------- null}
- -t 0.389908 -s 5 -d 0 -p tcp -e 1040 -c 1 -i 14 -a 1 -x {4.0 2.0 7 ------- null}
h -t 0.389908 -s 5 -d 0 -p tcp -e 1040 -c 1 -i 14 -a 1 -x {4.0 2.0 -1 ------- null}
+ -t 0.391376 -s 4 -d 7 -p tcp -e 1040 -c 1 -i 20 -a 1 -x {4.0 2.0 13 ------- null}
+ -t 0.391376 -s 4 -d 7 -p tcp -e 1040 -c 1 -i 21 -a 1 -x {4.0 2.0 14 ------- null}
- -t 0.397056 -s 4 -d 7 -p tcp -e 1040 -c 1 -i 17 -a 1 -x {4.0 2.0 10 ------- null}
h -t 0.397056 -s 4 -d 7 -p tcp -e 1040 -c 1 -i 17 -a 1 -x {4.0 2.0 -1 ------- null}
r -t 0.398436 -s 7 -d 5 -p tcp -e 1040 -c 1 -i 15 -a 1 -x {4.0 2.0 8 ------- null}
+ -t 0.398436 -s 5 -d 0 -p tcp -e 1040 -c 1 -i 15 -a 1 -x {4.0 2.0 8 ------- null}
- -t 0.398436 -s 5 -d 0 -p tcp -e 1040 -c 1 -i 15 -a 1 -x {4.0 2.0 8 ------- null}
h -t 0.398436 -s 5 -d 0 -p tcp -e 1040 -c 1 -i 15 -a 1 -x {4.0 2.0 -1 ------- null}
- -t 0.405584 -s 4 -d 7 -p tcp -e 1040 -c 1 -i 18 -a 1 -x {4.0 2.0 11 ------- null}
h -t 0.405584 -s 4 -d 7 -p tcp -e 1040 -c 1 -i 18 -a 1 -x {4.0 2.0 -1 ------- null}
r -t 0.406964 -s 7 -d 5 -p tcp -e 1040 -c 1 -i 16 -a 1 -x {4.0 2.0 9 ------- null}
+ -t 0.406964 -s 5 -d 0 -p tcp -e 1040 -c 1 -i 16 -a 1 -x {4.0 2.0 9 ------- null}
- -t 0.406964 -s 5 -d 0 -p tcp -e 1040 -c 1 -i 16 -a 1 -x {4.0 2.0 9 ------- null}
h -t 0.406964 -s 5 -d 0 -p tcp -e 1040 -c 1 -i 16 -a 1 -x {4.0 2.0 -1 ------- null}
r -t 0.408228 -s 5 -d 0 -p tcp -e 1040 -c 1 -i 14 -a 1 -x {4.0 2.0 7 ------- null}
h -t 0.408228 -s 0 -d 6 -p tcp -e 1040 -c 1 -i 14 -a 1 -x {4.0 2.0 7 ------- null}
- -t 0.414112 -s 4 -d 7 -p tcp -e 1040 -c 1 -i 19 -a 1 -x {4.0 2.0 12 ------- null}
h -t 0.414112 -s 4 -d 7 -p tcp -e 1040 -c 1 -i 19 -a 1 -x {4.0 2.0 -1 ------- null}
r -t 0.415492 -s 7 -d 5 -p tcp -e 1040 -c 1 -i 17 -a 1 -x {4.0 2.0 10 ------- null}
+ -t 0.415492 -s 5 -d 0 -p tcp -e 1040 -c 1 -i 17 -a 1 -x {4.0 2.0 10 ------- null}
- -t 0.415492 -s 5 -d 0 -p tcp -e 1040 -c 1 -i 17 -a 1 -x {4.0 2.0 10 ------- null}
h -t 0.415492 -s 5 -d 0 -p tcp -e 1040 -c 1 -i 17 -a 1 -x {4.0 2.0 -1 ------- null}
r -t 0.416756 -s 5 -d 0 -p tcp -e 1040 -c 1 -i 15 -a 1 -x {4.0 2.0 8 ------- null}
h -t 0.416756 -s 0 -d 6 -p tcp -e 1040 -c 1 -i 15 -a 1 -x {4.0 2.0 8 ------- null}
+ -t 0.418228 -s 0 -d 6 -p tcp -e 1040 -c 1 -i 14 -a 1 -x {4.0 2.0 7 ------- null}
- -t 0.418228 -s 0 -d 6 -p tcp -e 1040 -c 1 -i 14 -a 1 -x {4.0 2.0 7 ------- null}
h -t 0.418228 -s 0 -d 6 -p tcp -e 1040 -c 1 -i 14 -a 1 -x {4.0 2.0 -1 ------- null}
- -t 0.42264 -s 4 -d 7 -p tcp -e 1040 -c 1 -i 20 -a 1 -x {4.0 2.0 13 ------- null}
h -t 0.42264 -s 4 -d 7 -p tcp -e 1040 -c 1 -i 20 -a 1 -x {4.0 2.0 -1 ------- null}
r -t 0.42402 -s 7 -d 5 -p tcp -e 1040 -c 1 -i 18 -a 1 -x {4.0 2.0 11 ------- null}
+ -t 0.42402 -s 5 -d 0 -p tcp -e 1040 -c 1 -i 18 -a 1 -x {4.0 2.0 11 ------- null}
- -t 0.42402 -s 5 -d 0 -p tcp -e 1040 -c 1 -i 18 -a 1 -x {4.0 2.0 11 ------- null}
h -t 0.42402 -s 5 -d 0 -p tcp -e 1040 -c 1 -i 18 -a 1 -x {4.0 2.0 -1 ------- null}
r -t 0.425284 -s 5 -d 0 -p tcp -e 1040 -c 1 -i 16 -a 1 -x {4.0 2.0 9 ------- null}
h -t 0.425284 -s 0 -d 6 -p tcp -e 1040 -c 1 -i 16 -a 1 -x {4.0 2.0 9 ------- null}
+ -t 0.426756 -s 0 -d 6 -p tcp -e 1040 -c 1 -i 15 -a 1 -x {4.0 2.0 8 ------- null}
- -t 0.426756 -s 0 -d 6 -p tcp -e 1040 -c 1 -i 15 -a 1 -x {4.0 2.0 8 ------- null}
h -t 0.426756 -s 0 -d 6 -p tcp -e 1040 -c 1 -i 15 -a 1 -x {4.0 2.0 -1 ------- null}
- -t 0.431168 -s 4 -d 7 -p tcp -e 1040 -c 1 -i 21 -a 1 -x {4.0 2.0 14 ------- null}
h -t 0.431168 -s 4 -d 7 -p tcp -e 1040 -c 1 -i 21 -a 1 -x {4.0 2.0 -1 ------- null}
r -t 0.432548 -s 7 -d 5 -p tcp -e 1040 -c 1 -i 19 -a 1 -x {4.0 2.0 12 ------- null}
+ -t 0.432548 -s 5 -d 0 -p tcp -e 1040 -c 1 -i 19 -a 1 -x {4.0 2.0 12 ------- null}
- -t 0.432548 -s 5 -d 0 -p tcp -e 1040 -c 1 -i 19 -a 1 -x {4.0 2.0 12 ------- null}
h -t 0.432548 -s 5 -d 0 -p tcp -e 1040 -c 1 -i 19 -a 1 -x {4.0 2.0 -1 ------- null}
r -t 0.433812 -s 5 -d 0 -p tcp -e 1040 -c 1 -i 17 -a 1 -x {4.0 2.0 10 ------- null}
h -t 0.433812 -s 0 -d 6 -p tcp -e 1040 -c 1 -i 17 -a 1 -x {4.0 2.0 10 ------- null}
+ -t 0.435284 -s 0 -d 6 -p tcp -e 1040 -c 1 -i 16 -a 1 -x {4.0 2.0 9 ------- null}
- -t 0.435284 -s 0 -d 6 -p tcp -e 1040 -c 1 -i 16 -a 1 -x {4.0 2.0 9 ------- null}
h -t 0.435284 -s 0 -d 6 -p tcp -e 1040 -c 1 -i 16 -a 1 -x {4.0 2.0 -1 ------- null}
r -t 0.436664 -s 6 -d 2 -p tcp -e 1040 -c 1 -i 14 -a 1 -x {4.0 2.0 7 ------- null}
h -t 0.436664 -s 2 -d 6 -p ack -e 40 -c 1 -i 22 -a 1 -x {2.0 4.0 7 ------- null}
r -t 0.441076 -s 7 -d 5 -p tcp -e 1040 -c 1 -i 20 -a 1 -x {4.0 2.0 13 ------- null}
+ -t 0.441076 -s 5 -d 0 -p tcp -e 1040 -c 1 -i 20 -a 1 -x {4.0 2.0 13 ------- null}
- -t 0.441076 -s 5 -d 0 -p tcp -e 1040 -c 1 -i 20 -a 1 -x {4.0 2.0 13 ------- null}
h -t 0.441076 -s 5 -d 0 -p tcp -e 1040 -c 1 -i 20 -a 1 -x {4.0 2.0 -1 ------- null}
r -t 0.44234 -s 5 -d 0 -p tcp -e 1040 -c 1 -i 18 -a 1 -x {4.0 2.0 11 ------- null}
h -t 0.44234 -s 0 -d 6 -p tcp -e 1040 -c 1 -i 18 -a 1 -x {4.0 2.0 11 ------- null}
+ -t 0.443812 -s 0 -d 6 -p tcp -e 1040 -c 1 -i 17 -a 1 -x {4.0 2.0 10 ------- null}
- -t 0.443812 -s 0 -d 6 -p tcp -e 1040 -c 1 -i 17 -a 1 -x {4.0 2.0 10 ------- null}
h -t 0.443812 -s 0 -d 6 -p tcp -e 1040 -c 1 -i 17 -a 1 -x {4.0 2.0 -1 ------- null}
r -t 0.445192 -s 6 -d 2 -p tcp -e 1040 -c 1 -i 15 -a 1 -x {4.0 2.0 8 ------- null}
h -t 0.445192 -s 2 -d 6 -p ack -e 40 -c 1 -i 23 -a 1 -x {2.0 4.0 8 ------- null}
+ -t 0.446664 -s 2 -d 6 -p ack -e 40 -c 1 -i 22 -a 1 -x {2.0 4.0 7 ------- null}
- -t 0.446664 -s 2 -d 6 -p ack -e 40 -c 1 -i 22 -a 1 -x {2.0 4.0 7 ------- null}
h -t 0.446664 -s 2 -d 6 -p ack -e 40 -c 1 -i 22 -a 1 -x {2.0 4.0 -1 ------- null}
r -t 0.449604 -s 7 -d 5 -p tcp -e 1040 -c 1 -i 21 -a 1 -x {4.0 2.0 14 ------- null}
+ -t 0.449604 -s 5 -d 0 -p tcp -e 1040 -c 1 -i 21 -a 1 -x {4.0 2.0 14 ------- null}
- -t 0.449604 -s 5 -d 0 -p tcp -e 1040 -c 1 -i 21 -a 1 -x {4.0 2.0 14 ------- null}
h -t 0.449604 -s 5 -d 0 -p tcp -e 1040 -c 1 -i 21 -a 1 -x {4.0 2.0 -1 ------- null}
r -t 0.450868 -s 5 -d 0 -p tcp -e 1040 -c 1 -i 19 -a 1 -x {4.0 2.0 12 ------- null}
h -t 0.450868 -s 0 -d 6 -p tcp -e 1040 -c 1 -i 19 -a 1 -x {4.0 2.0 12 ------- null}
+ -t 0.45234 -s 0 -d 6 -p tcp -e 1040 -c 1 -i 18 -a 1 -x {4.0 2.0 11 ------- null}
- -t 0.45234 -s 0 -d 6 -p tcp -e 1040 -c 1 -i 18 -a 1 -x {4.0 2.0 11 ------- null}
h -t 0.45234 -s 0 -d 6 -p tcp -e 1040 -c 1 -i 18 -a 1 -x {4.0 2.0 -1 ------- null}
r -t 0.45372 -s 6 -d 2 -p tcp -e 1040 -c 1 -i 16 -a 1 -x {4.0 2.0 9 ------- null}
h -t 0.45372 -s 2 -d 6 -p ack -e 40 -c 1 -i 24 -a 1 -x {2.0 4.0 9 ------- null}
+ -t 0.455192 -s 2 -d 6 -p ack -e 40 -c 1 -i 23 -a 1 -x {2.0 4.0 8 ------- null}
r -t 0.459396 -s 5 -d 0 -p tcp -e 1040 -c 1 -i 20 -a 1 -x {4.0 2.0 13 ------- null}
h -t 0.459396 -s 0 -d 6 -p tcp -e 1040 -c 1 -i 20 -a 1 -x {4.0 2.0 13 ------- null}
+ -t 0.460868 -s 0 -d 6 -p tcp -e 1040 -c 1 -i 19 -a 1 -x {4.0 2.0 12 ------- null}
- -t 0.461004 -s 0 -d 6 -p tcp -e 1040 -c 1 -i 19 -a 1 -x {4.0 2.0 12 ------- null}
h -t 0.461004 -s 0 -d 6 -p tcp -e 1040 -c 1 -i 19 -a 1 -x {4.0 2.0 -1 ------- null}
r -t 0.462248 -s 6 -d 2 -p tcp -e 1040 -c 1 -i 17 -a 1 -x {4.0 2.0 10 ------- null}
h -t 0.462248 -s 2 -d 6 -p ack -e 40 -c 1 -i 25 -a 1 -x {2.0 4.0 10 ------- null}
+ -t 0.46372 -s 2 -d 6 -p ack -e 40 -c 1 -i 24 -a 1 -x {2.0 4.0 9 ------- null}
r -t 0.467924 -s 5 -d 0 -p tcp -e 1040 -c 1 -i 21 -a 1 -x {4.0 2.0 14 ------- null}
h -t 0.467924 -s 0 -d 6 -p tcp -e 1040 -c 1 -i 21 -a 1 -x {4.0 2.0 14 ------- null}
+ -t 0.469396 -s 0 -d 6 -p tcp -e 1040 -c 1 -i 20 -a 1 -x {4.0 2.0 13 ------- null}
- -t 0.47018 -s 0 -d 6 -p tcp -e 1040 -c 1 -i 20 -a 1 -x {4.0 2.0 13 ------- null}
h -t 0.47018 -s 0 -d 6 -p tcp -e 1040 -c 1 -i 20 -a 1 -x {4.0 2.0 -1 ------- null}
r -t 0.470912 -s 6 -d 2 -p tcp -e 1040 -c 1 -i 18 -a 1 -x {4.0 2.0 11 ------- null}
h -t 0.470912 -s 2 -d 6 -p ack -e 40 -c 1 -i 26 -a 1 -x {2.0 4.0 11 ------- null}
+ -t 0.472248 -s 2 -d 6 -p ack -e 40 -c 1 -i 25 -a 1 -x {2.0 4.0 10 ------- null}
+ -t 0.477924 -s 0 -d 6 -p tcp -e 1040 -c 1 -i 21 -a 1 -x {4.0 2.0 14 ------- null}
- -t 0.478844 -s 0 -d 6 -p tcp -e 1040 -c 1 -i 21 -a 1 -x {4.0 2.0 14 ------- null}
h -t 0.478844 -s 0 -d 6 -p tcp -e 1040 -c 1 -i 21 -a 1 -x {4.0 2.0 -1 ------- null}
r -t 0.480088 -s 6 -d 2 -p tcp -e 1040 -c 1 -i 19 -a 1 -x {4.0 2.0 12 ------- null}
h -t 0.480088 -s 2 -d 6 -p ack -e 40 -c 1 -i 27 -a 1 -x {2.0 4.0 12 ------- null}
+ -t 0.480912 -s 2 -d 6 -p ack -e 40 -c 1 -i 26 -a 1 -x {2.0 4.0 11 ------- null}
- -t 0.488632 -s 2 -d 6 -p ack -e 40 -c 1 -i 23 -a 1 -x {2.0 4.0 8 ------- null}
h -t 0.488632 -s 2 -d 6 -p ack -e 40 -c 1 -i 23 -a 1 -x {2.0 4.0 -1 ------- null}
r -t 0.488752 -s 6 -d 2 -p tcp -e 1040 -c 1 -i 20 -a 1 -x {4.0 2.0 13 ------- null}
h -t 0.488752 -s 2 -d 6 -p ack -e 40 -c 1 -i 28 -a 1 -x {2.0 4.0 13 ------- null}
- -t 0.48924 -s 2 -d 6 -p ack -e 40 -c 1 -i 24 -a 1 -x {2.0 4.0 9 ------- null}
h -t 0.48924 -s 2 -d 6 -p ack -e 40 -c 1 -i 24 -a 1 -x {2.0 4.0 -1 ------- null}
- -t 0.489848 -s 2 -d 6 -p ack -e 40 -c 1 -i 25 -a 1 -x {2.0 4.0 10 ------- null}
h -t 0.489848 -s 2 -d 6 -p ack -e 40 -c 1 -i 25 -a 1 -x {2.0 4.0 -1 ------- null}
+ -t 0.490088 -s 2 -d 6 -p ack -e 40 -c 1 -i 27 -a 1 -x {2.0 4.0 12 ------- null}
- -t 0.490456 -s 2 -d 6 -p ack -e 40 -c 1 -i 26 -a 1 -x {2.0 4.0 11 ------- null}
h -t 0.490456 -s 2 -d 6 -p ack -e 40 -c 1 -i 26 -a 1 -x {2.0 4.0 -1 ------- null}
- -t 0.491064 -s 2 -d 6 -p ack -e 40 -c 1 -i 27 -a 1 -x {2.0 4.0 12 ------- null}
h -t 0.491064 -s 2 -d 6 -p ack -e 40 -c 1 -i 27 -a 1 -x {2.0 4.0 -1 ------- null}
r -t 0.497928 -s 6 -d 2 -p tcp -e 1040 -c 1 -i 21 -a 1 -x {4.0 2.0 14 ------- null}
h -t 0.497928 -s 2 -d 6 -p ack -e 40 -c 1 -i 29 -a 1 -x {2.0 4.0 14 ------- null}
r -t 0.49854 -s 6 -d 0 -p ack -e 40 -c 1 -i 22 -a 1 -x {2.0 4.0 7 ------- null}
+ -t 0.49854 -s 0 -d 5 -p ack -e 40 -c 1 -i 22 -a 1 -x {2.0 4.0 7 ------- null}
- -t 0.49854 -s 0 -d 5 -p ack -e 40 -c 1 -i 22 -a 1 -x {2.0 4.0 7 ------- null}
h -t 0.49854 -s 0 -d 5 -p ack -e 40 -c 1 -i 22 -a 1 -x {2.0 4.0 -1 ------- null}
+ -t 0.498752 -s 2 -d 6 -p ack -e 40 -c 1 -i 28 -a 1 -x {2.0 4.0 13 ------- null}
- -t 0.498752 -s 2 -d 6 -p ack -e 40 -c 1 -i 28 -a 1 -x {2.0 4.0 13 ------- null}
h -t 0.498752 -s 2 -d 6 -p ack -e 40 -c 1 -i 28 -a 1 -x {2.0 4.0 -1 ------- null}
r -t 0.499148 -s 6 -d 0 -p ack -e 40 -c 1 -i 23 -a 1 -x {2.0 4.0 8 ------- null}
+ -t 0.499148 -s 0 -d 5 -p ack -e 40 -c 1 -i 23 -a 1 -x {2.0 4.0 8 ------- null}
- -t 0.499148 -s 0 -d 5 -p ack -e 40 -c 1 -i 23 -a 1 -x {2.0 4.0 8 ------- null}
h -t 0.499148 -s 0 -d 5 -p ack -e 40 -c 1 -i 23 -a 1 -x {2.0 4.0 -1 ------- null}
r -t 0.499756 -s 6 -d 0 -p ack -e 40 -c 1 -i 24 -a 1 -x {2.0 4.0 9 ------- null}
+ -t 0.499756 -s 0 -d 5 -p ack -e 40 -c 1 -i 24 -a 1 -x {2.0 4.0 9 ------- null}
- -t 0.499756 -s 0 -d 5 -p ack -e 40 -c 1 -i 24 -a 1 -x {2.0 4.0 9 ------- null}
h -t 0.499756 -s 0 -d 5 -p ack -e 40 -c 1 -i 24 -a 1 -x {2.0 4.0 -1 ------- null}
r -t 0.500364 -s 6 -d 0 -p ack -e 40 -c 1 -i 25 -a 1 -x {2.0 4.0 10 ------- null}
+ -t 0.500364 -s 0 -d 5 -p ack -e 40 -c 1 -i 25 -a 1 -x {2.0 4.0 10 ------- null}
- -t 0.500364 -s 0 -d 5 -p ack -e 40 -c 1 -i 25 -a 1 -x {2.0 4.0 10 ------- null}
h -t 0.500364 -s 0 -d 5 -p ack -e 40 -c 1 -i 25 -a 1 -x {2.0 4.0 -1 ------- null}
r -t 0.500972 -s 6 -d 0 -p ack -e 40 -c 1 -i 26 -a 1 -x {2.0 4.0 11 ------- null}
+ -t 0.500972 -s 0 -d 5 -p ack -e 40 -c 1 -i 26 -a 1 -x {2.0 4.0 11 ------- null}
- -t 0.500972 -s 0 -d 5 -p ack -e 40 -c 1 -i 26 -a 1 -x {2.0 4.0 11 ------- null}
h -t 0.500972 -s 0 -d 5 -p ack -e 40 -c 1 -i 26 -a 1 -x {2.0 4.0 -1 ------- null}
r -t 0.50158 -s 6 -d 0 -p ack -e 40 -c 1 -i 27 -a 1 -x {2.0 4.0 12 ------- null}