+ 0.2 0 1 ping 64 ------- 0 0.0 5.0 -1 0
- 0.2 0 1 ping 64 ------- 0 0.0 5.0 -1 0
r 0.21512 0 1 ping 64 ------- 0 0.0 5.0 -1 0
+ 0.21512 1 2 ping 64 ------- 0 0.0 5.0 -1 0
- 0.21512 1 2 ping 64 ------- 0 0.0 5.0 -1 0
r 0.23024 1 2 ping 64 ------- 0 0.0 5.0 -1 0
+ 0.23024 2 3 ping 64 ------- 0 0.0 5.0 -1 0
- 0.23024 2 3 ping 64 ------- 0 0.0 5.0 -1 0
r 0.24536 2 3 ping 64 ------- 0 0.0 5.0 -1 0
+ 0.24536 3 4 ping 64 ------- 0 0.0 5.0 -1 0
- 0.24536 3 4 ping 64 ------- 0 0.0 5.0 -1 0
r 0.26048 3 4 ping 64 ------- 0 0.0 5.0 -1 0
+ 0.26048 4 5 ping 64 ------- 0 0.0 5.0 -1 0
- 0.26048 4 5 ping 64 ------- 0 0.0 5.0 -1 0
r 0.2756 4 5 ping 64 ------- 0 0.0 5.0 -1 0
+ 0.2756 5 4 ping 64 ------- 0 5.0 0.0 -1 1
- 0.2756 5 4 ping 64 ------- 0 5.0 0.0 -1 1
r 0.29072 5 4 ping 64 ------- 0 5.0 0.0 -1 1
+ 0.29072 4 3 ping 64 ------- 0 5.0 0.0 -1 1
- 0.29072 4 3 ping 64 ------- 0 5.0 0.0 -1 1
r 0.30584 4 3 ping 64 ------- 0 5.0 0.0 -1 1
+ 0.30584 3 2 ping 64 ------- 0 5.0 0.0 -1 1
- 0.30584 3 2 ping 64 ------- 0 5.0 0.0 -1 1
r 0.32096 3 2 ping 64 ------- 0 5.0 0.0 -1 1
+ 0.32096 2 1 ping 64 ------- 0 5.0 0.0 -1 1
- 0.32096 2 1 ping 64 ------- 0 5.0 0.0 -1 1
r 0.33608 2 1 ping 64 ------- 0 5.0 0.0 -1 1
+ 0.33608 1 0 ping 64 ------- 0 5.0 0.0 -1 1
- 0.33608 1 0 ping 64 ------- 0 5.0 0.0 -1 1
r 0.3512 1 0 ping 64 ------- 0 5.0 0.0 -1 1
+ 0.4 5 4 ping 64 ------- 0 5.0 0.0 -1 2
- 0.4 5 4 ping 64 ------- 0 5.0 0.0 -1 2
+ 0.4 0 1 tcp 40 ------- 0 0.1 5.1 0 3
- 0.4 0 1 tcp 40 ------- 0 0.1 5.1 0 3
r 0.4132 0 1 tcp 40 ------- 0 0.1 5.1 0 3
+ 0.4132 1 2 tcp 40 ------- 0 0.1 5.1 0 3
- 0.4132 1 2 tcp 40 ------- 0 0.1 5.1 0 3
r 0.41512 5 4 ping 64 ------- 0 5.0 0.0 -1 2
+ 0.41512 4 3 ping 64 ------- 0 5.0 0.0 -1 2
- 0.41512 4 3 ping 64 ------- 0 5.0 0.0 -1 2
r 0.4264 1 2 tcp 40 ------- 0 0.1 5.1 0 3
+ 0.4264 2 3 tcp 40 ------- 0 0.1 5.1 0 3
- 0.4264 2 3 tcp 40 ------- 0 0.1 5.1 0 3
r 0.43024 4 3 ping 64 ------- 0 5.0 0.0 -1 2
+ 0.43024 3 2 ping 64 ------- 0 5.0 0.0 -1 2
- 0.43024 3 2 ping 64 ------- 0 5.0 0.0 -1 2
r 0.4396 2 3 tcp 40 ------- 0 0.1 5.1 0 3
+ 0.4396 3 4 tcp 40 ------- 0 0.1 5.1 0 3
- 0.4396 3 4 tcp 40 ------- 0 0.1 5.1 0 3
r 0.44536 3 2 ping 64 ------- 0 5.0 0.0 -1 2
+ 0.44536 2 1 ping 64 ------- 0 5.0 0.0 -1 2
- 0.44536 2 1 ping 64 ------- 0 5.0 0.0 -1 2
r 0.4528 3 4 tcp 40 ------- 0 0.1 5.1 0 3
+ 0.4528 4 5 tcp 40 ------- 0 0.1 5.1 0 3
- 0.4528 4 5 tcp 40 ------- 0 0.1 5.1 0 3
r 0.46048 2 1 ping 64 ------- 0 5.0 0.0 -1 2
+ 0.46048 1 0 ping 64 ------- 0 5.0 0.0 -1 2
- 0.46048 1 0 ping 64 ------- 0 5.0 0.0 -1 2
r 0.466 4 5 tcp 40 ------- 0 0.1 5.1 0 3
+ 0.466 5 4 ack 40 ------- 0 5.1 0.1 0 4
- 0.466 5 4 ack 40 ------- 0 5.1 0.1 0 4
r 0.4756 1 0 ping 64 ------- 0 5.0 0.0 -1 2
+ 0.4756 0 1 ping 64 ------- 0 0.0 5.0 -1 5
- 0.4756 0 1 ping 64 ------- 0 0.0 5.0 -1 5
r 0.4792 5 4 ack 40 ------- 0 5.1 0.1 0 4
+ 0.4792 4 3 ack 40 ------- 0 5.1 0.1 0 4
- 0.4792 4 3 ack 40 ------- 0 5.1 0.1 0 4
r 0.49072 0 1 ping 64 ------- 0 0.0 5.0 -1 5
+ 0.49072 1 2 ping 64 ------- 0 0.0 5.0 -1 5
- 0.49072 1 2 ping 64 ------- 0 0.0 5.0 -1 5
r 0.4924 4 3 ack 40 ------- 0 5.1 0.1 0 4
+ 0.4924 3 2 ack 40 ------- 0 5.1 0.1 0 4
- 0.4924 3 2 ack 40 ------- 0 5.1 0.1 0 4
r 0.5056 3 2 ack 40 ------- 0 5.1 0.1 0 4
+ 0.5056 2 1 ack 40 ------- 0 5.1 0.1 0 4
- 0.5056 2 1 ack 40 ------- 0 5.1 0.1 0 4
r 0.50584 1 2 ping 64 ------- 0 0.0 5.0 -1 5
+ 0.50584 2 3 ping 64 ------- 0 0.0 5.0 -1 5
- 0.50584 2 3 ping 64 ------- 0 0.0 5.0 -1 5
r 0.5188 2 1 ack 40 ------- 0 5.1 0.1 0 4
+ 0.5188 1 0 ack 40 ------- 0 5.1 0.1 0 4
- 0.5188 1 0 ack 40 ------- 0 5.1 0.1 0 4
r 0.52096 2 3 ping 64 ------- 0 0.0 5.0 -1 5
+ 0.52096 3 4 ping 64 ------- 0 0.0 5.0 -1 5
- 0.52096 3 4 ping 64 ------- 0 0.0 5.0 -1 5
r 0.532 1 0 ack 40 ------- 0 5.1 0.1 0 4
+ 0.532 0 1 tcp 1040 ------- 0 0.1 5.1 1 6
- 0.532 0 1 tcp 1040 ------- 0 0.1 5.1 1 6
+ 0.532 0 1 tcp 1040 ------- 0 0.1 5.1 2 7
r 0.53608 3 4 ping 64 ------- 0 0.0 5.0 -1 5
+ 0.53608 4 5 ping 64 ------- 0 0.0 5.0 -1 5
- 0.53608 4 5 ping 64 ------- 0 0.0 5.0 -1 5
r 0.5512 4 5 ping 64 ------- 0 0.0 5.0 -1 5
- 0.6152 0 1 tcp 1040 ------- 0 0.1 5.1 2 7
r 0.6252 0 1 tcp 1040 ------- 0 0.1 5.1 1 6
+ 0.6252 1 2 tcp 1040 ------- 0 0.1 5.1 1 6
- 0.6252 1 2 tcp 1040 ------- 0 0.1 5.1 1 6
r 0.7084 0 1 tcp 1040 ------- 0 0.1 5.1 2 7
+ 0.7084 1 2 tcp 1040 ------- 0 0.1 5.1 2 7
- 0.7084 1 2 tcp 1040 ------- 0 0.1 5.1 2 7
r 0.7184 1 2 tcp 1040 ------- 0 0.1 5.1 1 6
+ 0.7184 2 3 tcp 1040 ------- 0 0.1 5.1 1 6
- 0.7184 2 3 tcp 1040 ------- 0 0.1 5.1 1 6
+ 0.8 0 1 ping 64 ------- 0 0.0 5.0 -1 8
- 0.8 0 1 ping 64 ------- 0 0.0 5.0 -1 8
r 0.8016 1 2 tcp 1040 ------- 0 0.1 5.1 2 7
+ 0.8016 2 3 tcp 1040 ------- 0 0.1 5.1 2 7
- 0.8016 2 3 tcp 1040 ------- 0 0.1 5.1 2 7
r 0.8116 2 3 tcp 1040 ------- 0 0.1 5.1 1 6
+ 0.8116 3 4 tcp 1040 ------- 0 0.1 5.1 1 6
- 0.8116 3 4 tcp 1040 ------- 0 0.1 5.1 1 6
r 0.81512 0 1 ping 64 ------- 0 0.0 5.0 -1 8
+ 0.81512 1 2 ping 64 ------- 0 0.0 5.0 -1 8
- 0.81512 1 2 ping 64 ------- 0 0.0 5.0 -1 8
r 0.83024 1 2 ping 64 ------- 0 0.0 5.0 -1 8
+ 0.83024 2 3 ping 64 ------- 0 0.0 5.0 -1 8
- 0.8848 2 3 ping 64 ------- 0 0.0 5.0 -1 8
r 0.8948 2 3 tcp 1040 ------- 0 0.1 5.1 2 7
+ 0.8948 3 4 tcp 1040 ------- 0 0.1 5.1 2 7
- 0.8948 3 4 tcp 1040 ------- 0 0.1 5.1 2 7
r 0.89992 2 3 ping 64 ------- 0 0.0 5.0 -1 8
+ 0.89992 3 4 ping 64 ------- 0 0.0 5.0 -1 8
r 0.9048 3 4 tcp 1040 ------- 0 0.1 5.1 1 6
+ 0.9048 4 5 tcp 1040 ------- 0 0.1 5.1 1 6
- 0.9048 4 5 tcp 1040 ------- 0 0.1 5.1 1 6
+ 0.922 0 1 tcp 1040 ---A--- 0 0.1 5.1 1 9
- 0.922 0 1 tcp 1040 ---A--- 0 0.1 5.1 1 9
- 0.978 3 4 ping 64 ------- 0 0.0 5.0 -1 8
r 0.988 3 4 tcp 1040 ------- 0 0.1 5.1 2 7
+ 0.988 4 5 tcp 1040 ------- 0 0.1 5.1 2 7
- 0.988 4 5 tcp 1040 ------- 0 0.1 5.1 2 7
r 0.99312 3 4 ping 64 ------- 0 0.0 5.0 -1 8
+ 0.99312 4 5 ping 64 ------- 0 0.0 5.0 -1 8
r 0.998 4 5 tcp 1040 ------- 0 0.1 5.1 1 6
+ 0.998 5 4 ack 40 ------- 0 5.1 0.1 1 10
- 0.998 5 4 ack 40 ------- 0 5.1 0.1 1 10
+ 1 5 4 ping 64 ------- 0 5.0 0.0 -1 11
- 1.0012 5 4 ping 64 ------- 0 5.0 0.0 -1 11
r 1.0112 5 4 ack 40 ------- 0 5.1 0.1 1 10
+ 1.0112 4 3 ack 40 ------- 0 5.1 0.1 1 10
- 1.0112 4 3 ack 40 ------- 0 5.1 0.1 1 10
r 1.0152 0 1 tcp 1040 ---A--- 0 0.1 5.1 1 9
+ 1.0152 1 2 tcp 1040 ---A--- 0 0.1 5.1 1 9
- 1.0152 1 2 tcp 1040 ---A--- 0 0.1 5.1 1 9
r 1.01632 5 4 ping 64 ------- 0 5.0 0.0 -1 11
+ 1.01632 4 3 ping 64 ------- 0 5.0 0.0 -1 11
- 1.01632 4 3 ping 64 ------- 0 5.0 0.0 -1 11
r 1.0244 4 3 ack 40 ------- 0 5.1 0.1 1 10
+ 1.0244 3 2 ack 40 ------- 0 5.1 0.1 1 10
- 1.0244 3 2 ack 40 ------- 0 5.1 0.1 1 10
r 1.03144 4 3 ping 64 ------- 0 5.0 0.0 -1 11
+ 1.03144 3 2 ping 64 ------- 0 5.0 0.0 -1 11
- 1.03144 3 2 ping 64 ------- 0 5.0 0.0 -1 11
r 1.0376 3 2 ack 40 ------- 0 5.1 0.1 1 10
+ 1.0376 2 1 ack 40 ------- 0 5.1 0.1 1 10
- 1.0376 2 1 ack 40 ------- 0 5.1 0.1 1 10
r 1.04656 3 2 ping 64 ------- 0 5.0 0.0 -1 11
+ 1.04656 2 1 ping 64 ------- 0 5.0 0.0 -1 11
- 1.04656 2 1 ping 64 ------- 0 5.0 0.0 -1 11
r 1.0508 2 1 ack 40 ------- 0 5.1 0.1 1 10
+ 1.0508 1 0 ack 40 ------- 0 5.1 0.1 1 10
- 1.0508 1 0 ack 40 ------- 0 5.1 0.1 1 10
r 1.06168 2 1 ping 64 ------- 0 5.0 0.0 -1 11
+ 1.06168 1 0 ping 64 ------- 0 5.0 0.0 -1 11
- 1.06168 1 0 ping 64 ------- 0 5.0 0.0 -1 11
r 1.064 1 0 ack 40 ------- 0 5.1 0.1 1 10
+ 1.064 0 1 tcp 1040 ------- 0 0.1 5.1 2 12
- 1.064 0 1 tcp 1040 ------- 0 0.1 5.1 2 12
+ 1.064 0 1 tcp 1040 ------- 0 0.1 5.1 3 13
- 1.0712 4 5 ping 64 ------- 0 0.0 5.0 -1 8
r 1.0768 1 0 ping 64 ------- 0 5.0 0.0 -1 11
+ 1.0768 0 1 ping 64 ------- 0 0.0 5.0 -1 14
d 1.0768 0 1 ping 64 ------- 0 0.0 5.0 -1 14
r 1.0812 4 5 tcp 1040 ------- 0 0.1 5.1 2 7
+ 1.0812 5 4 ack 40 ------- 0 5.1 0.1 2 15
- 1.0812 5 4 ack 40 ------- 0 5.1 0.1 2 15
r 1.08632 4 5 ping 64 ------- 0 0.0 5.0 -1 8
+ 1.08632 5 4 ping 64 ------- 0 5.0 0.0 -1 16
- 1.08632 5 4 ping 64 ------- 0 5.0 0.0 -1 16
r 1.0944 5 4 ack 40 ------- 0 5.1 0.1 2 15
+ 1.0944 4 3 ack 40 ------- 0 5.1 0.1 2 15
- 1.0944 4 3 ack 40 ------- 0 5.1 0.1 2 15
r 1.10144 5 4 ping 64 ------- 0 5.0 0.0 -1 16
+ 1.10144 4 3 ping 64 ------- 0 5.0 0.0 -1 16
- 1.10144 4 3 ping 64 ------- 0 5.0 0.0 -1 16
r 1.1076 4 3 ack 40 ------- 0 5.1 0.1 2 15
+ 1.1076 3 2 ack 40 ------- 0 5.1 0.1 2 15
- 1.1076 3 2 ack 40 ------- 0 5.1 0.1 2 15
r 1.1084 1 2 tcp 1040 ---A--- 0 0.1 5.1 1 9
+ 1.1084 2 3 tcp 1040 ---A--- 0 0.1 5.1 1 9
- 1.1084 2 3 tcp 1040 ---A--- 0 0.1 5.1 1 9
r 1.11656 4 3 ping 64 ------- 0 5.0 0.0 -1 16
+ 1.11656 3 2 ping 64 ------- 0 5.0 0.0 -1 16
- 1.11656 3 2 ping 64 ------- 0 5.0 0.0 -1 16
r 1.1208 3 2 ack 40 ------- 0 5.1 0.1 2 15
+ 1.1208 2 1 ack 40 ------- 0 5.1 0.1 2 15
- 1.1208 2 1 ack 40 ------- 0 5.1 0.1 2 15
r 1.13168 3 2 ping 64 ------- 0 5.0 0.0 -1 16
+ 1.13168 2 1 ping 64 ------- 0 5.0 0.0 -1 16
- 1.13168 2 1 ping 64 ------- 0 5.0 0.0 -1 16
r 1.134 2 1 ack 40 ------- 0 5.1 0.1 2 15
+ 1.134 1 0 ack 40 ------- 0 5.1 0.1 2 15
- 1.134 1 0 ack 40 ------- 0 5.1 0.1 2 15
r 1.1468 2 1 ping 64 ------- 0 5.0 0.0 -1 16
+ 1.1468 1 0 ping 64 ------- 0 5.0 0.0 -1 16
- 1.1468 1 0 ping 64 ------- 0 5.0 0.0 -1 16
- 1.1472 0 1 tcp 1040 ------- 0 0.1 5.1 3 13
r 1.1472 1 0 ack 40 ------- 0 5.1 0.1 2 15
+ 1.1472 0 1 tcp 1040 ------- 0 0.1 5.1 4 17
r 1.1572 0 1 tcp 1040 ------- 0 0.1 5.1 2 12
+ 1.1572 1 2 tcp 1040 ------- 0 0.1 5.1 2 12
- 1.1572 1 2 tcp 1040 ------- 0 0.1 5.1 2 12
r 1.16192 1 0 ping 64 ------- 0 5.0 0.0 -1 16
r 1.2016 2 3 tcp 1040 ---A--- 0 0.1 5.1 1 9
+ 1.2016 3 4 tcp 1040 ---A--- 0 0.1 5.1 1 9
- 1.2016 3 4 tcp 1040 ---A--- 0 0.1 5.1 1 9
- 1.2304 0 1 tcp 1040 ------- 0 0.1 5.1 4 17
r 1.2404 0 1 tcp 1040 ------- 0 0.1 5.1 3 13
+ 1.2404 1 2 tcp 1040 ------- 0 0.1 5.1 3 13
- 1.2404 1 2 tcp 1040 ------- 0 0.1 5.1 3 13
r 1.2504 1 2 tcp 1040 ------- 0 0.1 5.1 2 12
+ 1.2504 2 3 tcp 1040 ------- 0 0.1 5.1 2 12
- 1.2504 2 3 tcp 1040 ------- 0 0.1 5.1 2 12
r 1.2948 3 4 tcp 1040 ---A--- 0 0.1 5.1 1 9
+ 1.2948 4 5 tcp 1040 ---A--- 0 0.1 5.1 1 9
- 1.2948 4 5 tcp 1040 ---A--- 0 0.1 5.1 1 9
r 1.3236 0 1 tcp 1040 ------- 0 0.1 5.1 4 17
+ 1.3236 1 2 tcp 1040 ------- 0 0.1 5.1 4 17
- 1.3236 1 2 tcp 1040 ------- 0 0.1 5.1 4 17
r 1.3336 1 2 tcp 1040 ------- 0 0.1 5.1 3 13
+ 1.3336 2 3 tcp 1040 ------- 0 0.1 5.1 3 13
- 1.3336 2 3 tcp 1040 ------- 0 0.1 5.1 3 13
r 1.3436 2 3 tcp 1040 ------- 0 0.1 5.1 2 12
+ 1.3436 3 4 tcp 1040 ------- 0 0.1 5.1 2 12
- 1.3436 3 4 tcp 1040 ------- 0 0.1 5.1 2 12
r 1.388 4 5 tcp 1040 ---A--- 0 0.1 5.1 1 9
+ 1.388 5 4 ack 40 ------- 0 5.1 0.1 2 18
- 1.388 5 4 ack 40 ------- 0 5.1 0.1 2 18
+ 1.4 0 1 ping 64 ------- 0 0.0 5.0 -1 19
- 1.4 0 1 ping 64 ------- 0 0.0 5.0 -1 19
r 1.4012 5 4 ack 40 ------- 0 5.1 0.1 2 18
+ 1.4012 4 3 ack 40 ------- 0 5.1 0.1 2 18
- 1.4012 4 3 ack 40 ------- 0 5.1 0.1 2 18
r 1.4144 4 3 ack 40 ------- 0 5.1 0.1 2 18
+ 1.4144 3 2 ack 40 ------- 0 5.1 0.1 2 18
- 1.4144 3 2 ack 40 ------- 0 5.1 0.1 2 18
r 1.41512 0 1 ping 64 ------- 0 0.0 5.0 -1 19
+ 1.41512 1 2 ping 64 ------- 0 0.0 5.0 -1 19
- 1.41512 1 2 ping 64 ------- 0 0.0 5.0 -1 19
r 1.4168 1 2 tcp 1040 ------- 0 0.1 5.1 4 17
+ 1.4168 2 3 tcp 1040 ------- 0 0.1 5.1 4 17
- 1.4168 2 3 tcp 1040 ------- 0 0.1 5.1 4 17
r 1.4268 2 3 tcp 1040 ------- 0 0.1 5.1 3 13
+ 1.4268 3 4 tcp 1040 ------- 0 0.1 5.1 3 13
- 1.4268 3 4 tcp 1040 ------- 0 0.1 5.1 3 13
r 1.4276 3 2 ack 40 ------- 0 5.1 0.1 2 18
+ 1.4276 2 1 ack 40 ------- 0 5.1 0.1 2 18
- 1.4276 2 1 ack 40 ------- 0 5.1 0.1 2 18
r 1.43024 1 2 ping 64 ------- 0 0.0 5.0 -1 19
+ 1.43024 2 3 ping 64 ------- 0 0.0 5.0 -1 19
r 1.4368 3 4 tcp 1040 ------- 0 0.1 5.1 2 12
+ 1.4368 4 5 tcp 1040 ------- 0 0.1 5.1 2 12
- 1.4368 4 5 tcp 1040 ------- 0 0.1 5.1 2 12
r 1.4408 2 1 ack 40 ------- 0 5.1 0.1 2 18
+ 1.4408 1 0 ack 40 ------- 0 5.1 0.1 2 18
- 1.4408 1 0 ack 40 ------- 0 5.1 0.1 2 18
r 1.454 1 0 ack 40 ------- 0 5.1 0.1 2 18
- 1.5 2 3 ping 64 ------- 0 0.0 5.0 -1 19
r 1.51 2 3 tcp 1040 ------- 0 0.1 5.1 4 17
+ 1.51 3 4 tcp 1040 ------- 0 0.1 5.1 4 17
- 1.51 3 4 tcp 1040 ------- 0 0.1 5.1 4 17
r 1.51512 2 3 ping 64 ------- 0 0.0 5.0 -1 19
+ 1.51512 3 4 ping 64 ------- 0 0.0 5.0 -1 19
r 1.52 3 4 tcp 1040 ------- 0 0.1 5.1 3 13
+ 1.52 4 5 tcp 1040 ------- 0 0.1 5.1 3 13
- 1.52 4 5 tcp 1040 ------- 0 0.1 5.1 3 13
r 1.53 4 5 tcp 1040 ------- 0 0.1 5.1 2 12
+ 1.53 5 4 ack 40 ------- 0 5.1 0.1 2 20
- 1.53 5 4 ack 40 ------- 0 5.1 0.1 2 20
r 1.5432 5 4 ack 40 ------- 0 5.1 0.1 2 20
+ 1.5432 4 3 ack 40 ------- 0 5.1 0.1 2 20
- 1.5432 4 3 ack 40 ------- 0 5.1 0.1 2 20
r 1.5564 4 3 ack 40 ------- 0 5.1 0.1 2 20
+ 1.5564 3 2 ack 40 ------- 0 5.1 0.1 2 20
- 1.5564 3 2 ack 40 ------- 0 5.1 0.1 2 20
r 1.5696 3 2 ack 40 ------- 0 5.1 0.1 2 20
+ 1.5696 2 1 ack 40 ------- 0 5.1 0.1 2 20
- 1.5696 2 1 ack 40 ------- 0 5.1 0.1 2 20
r 1.5828 2 1 ack 40 ------- 0 5.1 0.1 2 20
+ 1.5828 1 0 ack 40 ------- 0 5.1 0.1 2 20
- 1.5828 1 0 ack 40 ------- 0 5.1 0.1 2 20
- 1.5932 3 4 ping 64 ------- 0 0.0 5.0 -1 19
r 1.596 1 0 ack 40 ------- 0 5.1 0.1 2 20
+ 1.6 5 4 ping 64 ------- 0 5.0 0.0 -1 21
- 1.6 5 4 ping 64 ------- 0 5.0 0.0 -1 21
r 1.6032 3 4 tcp 1040 ------- 0 0.1 5.1 4 17
+ 1.6032 4 5 tcp 1040 ------- 0 0.1 5.1 4 17
- 1.6032 4 5 tcp 1040 ------- 0 0.1 5.1 4 17
r 1.60832 3 4 ping 64 ------- 0 0.0 5.0 -1 19
+ 1.60832 4 5 ping 64 ------- 0 0.0 5.0 -1 19
r 1.6132 4 5 tcp 1040 ------- 0 0.1 5.1 3 13
+ 1.6132 5 4 ack 40 ------- 0 5.1 0.1 3 22
- 1.6132 5 4 ack 40 ------- 0 5.1 0.1 3 22
r 1.61512 5 4 ping 64 ------- 0 5.0 0.0 -1 21
+ 1.61512 4 3 ping 64 ------- 0 5.0 0.0 -1 21
- 1.61512 4 3 ping 64 ------- 0 5.0 0.0 -1 21
r 1.6264 5 4 ack 40 ------- 0 5.1 0.1 3 22
+ 1.6264 4 3 ack 40 ------- 0 5.1 0.1 3 22
- 1.6264 4 3 ack 40 ------- 0 5.1 0.1 3 22
r 1.63024 4 3 ping 64 ------- 0 5.0 0.0 -1 21
+ 1.63024 3 2 ping 64 ------- 0 5.0 0.0 -1 21
- 1.63024 3 2 ping 64 ------- 0 5.0 0.0 -1 21
r 1.6396 4 3 ack 40 ------- 0 5.1 0.1 3 22
+ 1.6396 3 2 ack 40 ------- 0 5.1 0.1 3 22
- 1.6396 3 2 ack 40 ------- 0 5.1 0.1 3 22
r 1.64536 3 2 ping 64 ------- 0 5.0 0.0 -1 21
+ 1.64536 2 1 ping 64 ------- 0 5.0 0.0 -1 21
- 1.64536 2 1 ping 64 ------- 0 5.0 0.0 -1 21
r 1.6528 3 2 ack 40 ------- 0 5.1 0.1 3 22
+ 1.6528 2 1 ack 40 ------- 0 5.1 0.1 3 22
- 1.6528 2 1 ack 40 ------- 0 5.1 0.1 3 22
r 1.66048 2 1 ping 64 ------- 0 5.0 0.0 -1 21
+ 1.66048 1 0 ping 64 ------- 0 5.0 0.0 -1 21
- 1.66048 1 0 ping 64 ------- 0 5.0 0.0 -1 21
r 1.666 2 1 ack 40 ------- 0 5.1 0.1 3 22
+ 1.666 1 0 ack 40 ------- 0 5.1 0.1 3 22
- 1.666 1 0 ack 40 ------- 0 5.1 0.1 3 22
r 1.6756 1 0 ping 64 ------- 0 5.0 0.0 -1 21
+ 1.6756 0 1 ping 64 ------- 0 0.0 5.0 -1 23
- 1.6756 0 1 ping 64 ------- 0 0.0 5.0 -1 23
r 1.6792 1 0 ack 40 ------- 0 5.1 0.1 3 22
- 1.6864 4 5 ping 64 ------- 0 0.0 5.0 -1 19
r 1.69072 0 1 ping 64 ------- 0 0.0 5.0 -1 23
+ 1.69072 1 2 ping 64 ------- 0 0.0 5.0 -1 23
- 1.69072 1 2 ping 64 ------- 0 0.0 5.0 -1 23
r 1.6964 4 5 tcp 1040 ------- 0 0.1 5.1 4 17
+ 1.6964 5 4 ack 40 ------- 0 5.1 0.1 4 24
- 1.6964 5 4 ack 40 ------- 0 5.1 0.1 4 24
r 1.70152 4 5 ping 64 ------- 0 0.0 5.0 -1 19
+ 1.70152 5 4 ping 64 ------- 0 5.0 0.0 -1 25
- 1.70152 5 4 ping 64 ------- 0 5.0 0.0 -1 25
r 1.70584 1 2 ping 64 ------- 0 0.0 5.0 -1 23
+ 1.70584 2 3 ping 64 ------- 0 0.0 5.0 -1 23
- 1.70584 2 3 ping 64 ------- 0 0.0 5.0 -1 23
r 1.7096 5 4 ack 40 ------- 0 5.1 0.1 4 24
+ 1.7096 4 3 ack 40 ------- 0 5.1 0.1 4 24
- 1.7096 4 3 ack 40 ------- 0 5.1 0.1 4 24
r 1.71664 5 4 ping 64 ------- 0 5.0 0.0 -1 25
+ 1.71664 4 3 ping 64 ------- 0 5.0 0.0 -1 25
- 1.71664 4 3 ping 64 ------- 0 5.0 0.0 -1 25
r 1.72096 2 3 ping 64 ------- 0 0.0 5.0 -1 23
+ 1.72096 3 4 ping 64 ------- 0 0.0 5.0 -1 23
- 1.72096 3 4 ping 64 ------- 0 0.0 5.0 -1 23
r 1.7228 4 3 ack 40 ------- 0 5.1 0.1 4 24
+ 1.7228 3 2 ack 40 ------- 0 5.1 0.1 4 24
- 1.7228 3 2 ack 40 ------- 0 5.1 0.1 4 24
r 1.73176 4 3 ping 64 ------- 0 5.0 0.0 -1 25
+ 1.73176 3 2 ping 64 ------- 0 5.0 0.0 -1 25
- 1.73176 3 2 ping 64 ------- 0 5.0 0.0 -1 25
r 1.736 3 2 ack 40 ------- 0 5.1 0.1 4 24
+ 1.736 2 1 ack 40 ------- 0 5.1 0.1 4 24
- 1.736 2 1 ack 40 ------- 0 5.1 0.1 4 24
r 1.73608 3 4 ping 64 ------- 0 0.0 5.0 -1 23
+ 1.73608 4 5 ping 64 ------- 0 0.0 5.0 -1 23
- 1.73608 4 5 ping 64 ------- 0 0.0 5.0 -1 23
r 1.74688 3 2 ping 64 ------- 0 5.0 0.0 -1 25
+ 1.74688 2 1 ping 64 ------- 0 5.0 0.0 -1 25
- 1.74688 2 1 ping 64 ------- 0 5.0 0.0 -1 25
r 1.7492 2 1 ack 40 ------- 0 5.1 0.1 4 24
+ 1.7492 1 0 ack 40 ------- 0 5.1 0.1 4 24
- 1.7492 1 0 ack 40 ------- 0 5.1 0.1 4 24
r 1.7512 4 5 ping 64 ------- 0 0.0 5.0 -1 23
r 1.762 2 1 ping 64 ------- 0 5.0 0.0 -1 25
+ 1.762 1 0 ping 64 ------- 0 5.0 0.0 -1 25
- 1.762 1 0 ping 64 ------- 0 5.0 0.0 -1 25
r 1.7624 1 0 ack 40 ------- 0 5.1 0.1 4 24
r 1.77712 1 0 ping 64 ------- 0 5.0 0.0 -1 25
