+ 0 0 2 tcp 40 ------- 0 0.0 4.0 0 0
- 0 0 2 tcp 40 ------- 0 0.0 4.0 0 0
r 0.010107 0 2 tcp 40 ------- 0 0.0 4.0 0 0
+ 0.010107 2 1 tcp 40 ------- 0 0.0 4.0 0 0
- 0.010107 2 1 tcp 40 ------- 0 0.0 4.0 0 0
r 0.16094 2 1 tcp 40 ------- 0 0.0 4.0 0 0
+ 0.16094 1 3 tcp 40 ------- 0 0.0 4.0 0 0
- 0.16094 1 3 tcp 40 ------- 0 0.0 4.0 0 0
r 0.31594 1 3 tcp 40 ------- 0 0.0 4.0 0 0
+ 0.31594 3 4 tcp 40 ------- 0 0.0 4.0 0 0
- 0.31594 3 4 tcp 40 ------- 0 0.0 4.0 0 0
r 0.366047 3 4 tcp 40 ------- 0 0.0 4.0 0 0
+ 0.366047 4 3 ack 40 ------- 0 4.0 0.0 0 1
- 0.366047 4 3 ack 40 ------- 0 4.0 0.0 0 1
r 0.416153 4 3 ack 40 ------- 0 4.0 0.0 0 1
+ 0.416153 3 1 ack 40 ------- 0 4.0 0.0 0 1
- 0.416153 3 1 ack 40 ------- 0 4.0 0.0 0 1
r 0.566987 3 1 ack 40 ------- 0 4.0 0.0 0 1
+ 0.566987 1 2 ack 40 ------- 0 4.0 0.0 0 1
- 0.566987 1 2 ack 40 ------- 0 4.0 0.0 0 1
r 0.721987 1 2 ack 40 ------- 0 4.0 0.0 0 1
+ 0.721987 2 0 ack 40 ------- 0 4.0 0.0 0 1
- 0.721987 2 0 ack 40 ------- 0 4.0 0.0 0 1
r 0.732093 2 0 ack 40 ------- 0 4.0 0.0 0 1
+ 0.732093 0 2 tcp 1040 ------- 0 0.0 4.0 1 2
- 0.732093 0 2 tcp 1040 ------- 0 0.0 4.0 1 2
+ 0.732093 0 2 tcp 1040 ------- 0 0.0 4.0 2 3
- 0.734867 0 2 tcp 1040 ------- 0 0.0 4.0 2 3
r 0.744867 0 2 tcp 1040 ------- 0 0.0 4.0 1 2
+ 0.744867 2 1 tcp 1040 ------- 0 0.0 4.0 1 2
- 0.744867 2 1 tcp 1040 ------- 0 0.0 4.0 1 2
r 0.74764 0 2 tcp 1040 ------- 0 0.0 4.0 2 3
+ 0.74764 2 1 tcp 1040 ------- 0 0.0 4.0 2 3
- 0.766533 2 1 tcp 1040 ------- 0 0.0 4.0 2 3
r 0.916533 2 1 tcp 1040 ------- 0 0.0 4.0 1 2
+ 0.916533 1 3 tcp 1040 ------- 0 0.0 4.0 1 2
- 0.916533 1 3 tcp 1040 ------- 0 0.0 4.0 1 2
r 0.9382 2 1 tcp 1040 ------- 0 0.0 4.0 2 3
+ 0.9382 1 3 tcp 1040 ------- 0 0.0 4.0 2 3
- 1.046533 1 3 tcp 1040 ------- 0 0.0 4.0 2 3
r 1.196533 1 3 tcp 1040 ------- 0 0.0 4.0 1 2
+ 1.196533 3 4 tcp 1040 ------- 0 0.0 4.0 1 2
- 1.196533 3 4 tcp 1040 ------- 0 0.0 4.0 1 2
r 1.249307 3 4 tcp 1040 ------- 0 0.0 4.0 1 2
+ 1.249307 4 3 ack 40 ------- 0 4.0 0.0 1 4
- 1.249307 4 3 ack 40 ------- 0 4.0 0.0 1 4
r 1.299413 4 3 ack 40 ------- 0 4.0 0.0 1 4
+ 1.299413 3 1 ack 40 ------- 0 4.0 0.0 1 4
- 1.299413 3 1 ack 40 ------- 0 4.0 0.0 1 4
r 1.326533 1 3 tcp 1040 ------- 0 0.0 4.0 2 3
+ 1.326533 3 4 tcp 1040 ------- 0 0.0 4.0 2 3
- 1.326533 3 4 tcp 1040 ------- 0 0.0 4.0 2 3
r 1.379307 3 4 tcp 1040 ------- 0 0.0 4.0 2 3
+ 1.379307 4 3 ack 40 ------- 0 4.0 0.0 2 5
- 1.379307 4 3 ack 40 ------- 0 4.0 0.0 2 5
r 1.429413 4 3 ack 40 ------- 0 4.0 0.0 2 5
+ 1.429413 3 1 ack 40 ------- 0 4.0 0.0 2 5
- 1.429413 3 1 ack 40 ------- 0 4.0 0.0 2 5
r 1.450247 3 1 ack 40 ------- 0 4.0 0.0 1 4
+ 1.450247 1 2 ack 40 ------- 0 4.0 0.0 1 4
- 1.450247 1 2 ack 40 ------- 0 4.0 0.0 1 4
r 1.580247 3 1 ack 40 ------- 0 4.0 0.0 2 5
+ 1.580247 1 2 ack 40 ------- 0 4.0 0.0 2 5
- 1.580247 1 2 ack 40 ------- 0 4.0 0.0 2 5
r 1.605247 1 2 ack 40 ------- 0 4.0 0.0 1 4
+ 1.605247 2 0 ack 40 ------- 0 4.0 0.0 1 4
- 1.605247 2 0 ack 40 ------- 0 4.0 0.0 1 4
r 1.615353 2 0 ack 40 ------- 0 4.0 0.0 1 4
+ 1.615353 0 2 tcp 1040 ------- 0 0.0 4.0 3 6
- 1.615353 0 2 tcp 1040 ------- 0 0.0 4.0 3 6
+ 1.615353 0 2 tcp 1040 ------- 0 0.0 4.0 4 7
- 1.618127 0 2 tcp 1040 ------- 0 0.0 4.0 4 7
r 1.628127 0 2 tcp 1040 ------- 0 0.0 4.0 3 6
+ 1.628127 2 1 tcp 1040 ------- 0 0.0 4.0 3 6
- 1.628127 2 1 tcp 1040 ------- 0 0.0 4.0 3 6
r 1.6309 0 2 tcp 1040 ------- 0 0.0 4.0 4 7
+ 1.6309 2 1 tcp 1040 ------- 0 0.0 4.0 4 7
- 1.649793 2 1 tcp 1040 ------- 0 0.0 4.0 4 7
r 1.735247 1 2 ack 40 ------- 0 4.0 0.0 2 5
+ 1.735247 2 0 ack 40 ------- 0 4.0 0.0 2 5
- 1.735247 2 0 ack 40 ------- 0 4.0 0.0 2 5
r 1.745353 2 0 ack 40 ------- 0 4.0 0.0 2 5
+ 1.745353 0 2 tcp 1040 ------- 0 0.0 4.0 5 8
- 1.745353 0 2 tcp 1040 ------- 0 0.0 4.0 5 8
+ 1.745353 0 2 tcp 1040 ------- 0 0.0 4.0 6 9
- 1.748127 0 2 tcp 1040 ------- 0 0.0 4.0 6 9
r 1.758127 0 2 tcp 1040 ------- 0 0.0 4.0 5 8
+ 1.758127 2 1 tcp 1040 ------- 0 0.0 4.0 5 8
- 1.758127 2 1 tcp 1040 ------- 0 0.0 4.0 5 8
r 1.7609 0 2 tcp 1040 ------- 0 0.0 4.0 6 9
+ 1.7609 2 1 tcp 1040 ------- 0 0.0 4.0 6 9
- 1.779793 2 1 tcp 1040 ------- 0 0.0 4.0 6 9
r 1.799793 2 1 tcp 1040 ------- 0 0.0 4.0 3 6
+ 1.799793 1 3 tcp 1040 ------- 0 0.0 4.0 3 6
- 1.799793 1 3 tcp 1040 ------- 0 0.0 4.0 3 6
r 1.82146 2 1 tcp 1040 ------- 0 0.0 4.0 4 7
+ 1.82146 1 3 tcp 1040 ------- 0 0.0 4.0 4 7
- 1.929793 1 3 tcp 1040 ------- 0 0.0 4.0 4 7
r 1.929793 2 1 tcp 1040 ------- 0 0.0 4.0 5 8
+ 1.929793 1 3 tcp 1040 ------- 0 0.0 4.0 5 8
r 1.95146 2 1 tcp 1040 ------- 0 0.0 4.0 6 9
+ 1.95146 1 3 tcp 1040 ------- 0 0.0 4.0 6 9
- 2.059793 1 3 tcp 1040 ------- 0 0.0 4.0 5 8
r 2.079793 1 3 tcp 1040 ------- 0 0.0 4.0 3 6
+ 2.079793 3 4 tcp 1040 ------- 0 0.0 4.0 3 6
- 2.079793 3 4 tcp 1040 ------- 0 0.0 4.0 3 6
r 2.132567 3 4 tcp 1040 ------- 0 0.0 4.0 3 6
+ 2.132567 4 3 ack 40 ------- 0 4.0 0.0 3 10
- 2.132567 4 3 ack 40 ------- 0 4.0 0.0 3 10
r 2.182673 4 3 ack 40 ------- 0 4.0 0.0 3 10
+ 2.182673 3 1 ack 40 ------- 0 4.0 0.0 3 10
- 2.182673 3 1 ack 40 ------- 0 4.0 0.0 3 10
- 2.189793 1 3 tcp 1040 ------- 0 0.0 4.0 6 9
r 2.209793 1 3 tcp 1040 ------- 0 0.0 4.0 4 7
+ 2.209793 3 4 tcp 1040 ------- 0 0.0 4.0 4 7
- 2.209793 3 4 tcp 1040 ------- 0 0.0 4.0 4 7
r 2.262567 3 4 tcp 1040 ------- 0 0.0 4.0 4 7
+ 2.262567 4 3 ack 40 ------- 0 4.0 0.0 4 11
- 2.262567 4 3 ack 40 ------- 0 4.0 0.0 4 11
r 2.312673 4 3 ack 40 ------- 0 4.0 0.0 4 11
+ 2.312673 3 1 ack 40 ------- 0 4.0 0.0 4 11
- 2.312673 3 1 ack 40 ------- 0 4.0 0.0 4 11
r 2.333507 3 1 ack 40 ------- 0 4.0 0.0 3 10
+ 2.333507 1 2 ack 40 ------- 0 4.0 0.0 3 10
- 2.333507 1 2 ack 40 ------- 0 4.0 0.0 3 10
r 2.339793 1 3 tcp 1040 ------- 0 0.0 4.0 5 8
+ 2.339793 3 4 tcp 1040 ------- 0 0.0 4.0 5 8
- 2.339793 3 4 tcp 1040 ------- 0 0.0 4.0 5 8
r 2.392567 3 4 tcp 1040 ------- 0 0.0 4.0 5 8
+ 2.392567 4 3 ack 40 ------- 0 4.0 0.0 5 12
- 2.392567 4 3 ack 40 ------- 0 4.0 0.0 5 12
r 2.442673 4 3 ack 40 ------- 0 4.0 0.0 5 12
+ 2.442673 3 1 ack 40 ------- 0 4.0 0.0 5 12
- 2.442673 3 1 ack 40 ------- 0 4.0 0.0 5 12
r 2.463507 3 1 ack 40 ------- 0 4.0 0.0 4 11
+ 2.463507 1 2 ack 40 ------- 0 4.0 0.0 4 11
- 2.463507 1 2 ack 40 ------- 0 4.0 0.0 4 11
r 2.469793 1 3 tcp 1040 ------- 0 0.0 4.0 6 9
+ 2.469793 3 4 tcp 1040 ------- 0 0.0 4.0 6 9
- 2.469793 3 4 tcp 1040 ------- 0 0.0 4.0 6 9
r 2.488507 1 2 ack 40 ------- 0 4.0 0.0 3 10
+ 2.488507 2 0 ack 40 ------- 0 4.0 0.0 3 10
- 2.488507 2 0 ack 40 ------- 0 4.0 0.0 3 10
r 2.498613 2 0 ack 40 ------- 0 4.0 0.0 3 10
+ 2.498613 0 2 tcp 1040 ------- 0 0.0 4.0 7 13
- 2.498613 0 2 tcp 1040 ------- 0 0.0 4.0 7 13
+ 2.498613 0 2 tcp 1040 ------- 0 0.0 4.0 8 14
- 2.501387 0 2 tcp 1040 ------- 0 0.0 4.0 8 14
r 2.511387 0 2 tcp 1040 ------- 0 0.0 4.0 7 13
+ 2.511387 2 1 tcp 1040 ------- 0 0.0 4.0 7 13
- 2.511387 2 1 tcp 1040 ------- 0 0.0 4.0 7 13
r 2.51416 0 2 tcp 1040 ------- 0 0.0 4.0 8 14
+ 2.51416 2 1 tcp 1040 ------- 0 0.0 4.0 8 14
r 2.522567 3 4 tcp 1040 ------- 0 0.0 4.0 6 9
+ 2.522567 4 3 ack 40 ------- 0 4.0 0.0 6 15
- 2.522567 4 3 ack 40 ------- 0 4.0 0.0 6 15
- 2.533053 2 1 tcp 1040 ------- 0 0.0 4.0 8 14
r 2.572673 4 3 ack 40 ------- 0 4.0 0.0 6 15
+ 2.572673 3 1 ack 40 ------- 0 4.0 0.0 6 15
- 2.572673 3 1 ack 40 ------- 0 4.0 0.0 6 15
r 2.593507 3 1 ack 40 ------- 0 4.0 0.0 5 12
+ 2.593507 1 2 ack 40 ------- 0 4.0 0.0 5 12
- 2.593507 1 2 ack 40 ------- 0 4.0 0.0 5 12
r 2.618507 1 2 ack 40 ------- 0 4.0 0.0 4 11
+ 2.618507 2 0 ack 40 ------- 0 4.0 0.0 4 11
- 2.618507 2 0 ack 40 ------- 0 4.0 0.0 4 11
r 2.628613 2 0 ack 40 ------- 0 4.0 0.0 4 11
+ 2.628613 0 2 tcp 1040 ------- 0 0.0 4.0 9 16
- 2.628613 0 2 tcp 1040 ------- 0 0.0 4.0 9 16
+ 2.628613 0 2 tcp 1040 ------- 0 0.0 4.0 10 17
- 2.631387 0 2 tcp 1040 ------- 0 0.0 4.0 10 17
r 2.641387 0 2 tcp 1040 ------- 0 0.0 4.0 9 16
+ 2.641387 2 1 tcp 1040 ------- 0 0.0 4.0 9 16
- 2.641387 2 1 tcp 1040 ------- 0 0.0 4.0 9 16
r 2.64416 0 2 tcp 1040 ------- 0 0.0 4.0 10 17
+ 2.64416 2 1 tcp 1040 ------- 0 0.0 4.0 10 17
- 2.663053 2 1 tcp 1040 ------- 0 0.0 4.0 10 17
r 2.683053 2 1 tcp 1040 ------- 0 0.0 4.0 7 13
+ 2.683053 1 3 tcp 1040 ------- 0 0.0 4.0 7 13
- 2.683053 1 3 tcp 1040 ------- 0 0.0 4.0 7 13
r 2.70472 2 1 tcp 1040 ------- 0 0.0 4.0 8 14
+ 2.70472 1 3 tcp 1040 ------- 0 0.0 4.0 8 14
r 2.723507 3 1 ack 40 ------- 0 4.0 0.0 6 15
+ 2.723507 1 2 ack 40 ------- 0 4.0 0.0 6 15
- 2.723507 1 2 ack 40 ------- 0 4.0 0.0 6 15
r 2.748507 1 2 ack 40 ------- 0 4.0 0.0 5 12
+ 2.748507 2 0 ack 40 ------- 0 4.0 0.0 5 12
- 2.748507 2 0 ack 40 ------- 0 4.0 0.0 5 12
r 2.758613 2 0 ack 40 ------- 0 4.0 0.0 5 12
+ 2.758613 0 2 tcp 1040 ------- 0 0.0 4.0 11 18
- 2.758613 0 2 tcp 1040 ------- 0 0.0 4.0 11 18
+ 2.758613 0 2 tcp 1040 ------- 0 0.0 4.0 12 19
- 2.761387 0 2 tcp 1040 ------- 0 0.0 4.0 12 19
r 2.771387 0 2 tcp 1040 ------- 0 0.0 4.0 11 18
+ 2.771387 2 1 tcp 1040 ------- 0 0.0 4.0 11 18
- 2.771387 2 1 tcp 1040 ------- 0 0.0 4.0 11 18
r 2.77416 0 2 tcp 1040 ------- 0 0.0 4.0 12 19
+ 2.77416 2 1 tcp 1040 ------- 0 0.0 4.0 12 19
- 2.793053 2 1 tcp 1040 ------- 0 0.0 4.0 12 19
r 2.813053 2 1 tcp 1040 ------- 0 0.0 4.0 9 16
+ 2.813053 1 3 tcp 1040 ------- 0 0.0 4.0 9 16
- 2.813053 1 3 tcp 1040 ------- 0 0.0 4.0 8 14
r 2.83472 2 1 tcp 1040 ------- 0 0.0 4.0 10 17
+ 2.83472 1 3 tcp 1040 ------- 0 0.0 4.0 10 17
r 2.878507 1 2 ack 40 ------- 0 4.0 0.0 6 15
+ 2.878507 2 0 ack 40 ------- 0 4.0 0.0 6 15
- 2.878507 2 0 ack 40 ------- 0 4.0 0.0 6 15
r 2.888613 2 0 ack 40 ------- 0 4.0 0.0 6 15
+ 2.888613 0 2 tcp 1040 ------- 0 0.0 4.0 13 20
- 2.888613 0 2 tcp 1040 ------- 0 0.0 4.0 13 20
+ 2.888613 0 2 tcp 1040 ------- 0 0.0 4.0 14 21
- 2.891387 0 2 tcp 1040 ------- 0 0.0 4.0 14 21
r 2.901387 0 2 tcp 1040 ------- 0 0.0 4.0 13 20
+ 2.901387 2 1 tcp 1040 ------- 0 0.0 4.0 13 20
- 2.901387 2 1 tcp 1040 ------- 0 0.0 4.0 13 20
r 2.90416 0 2 tcp 1040 ------- 0 0.0 4.0 14 21
+ 2.90416 2 1 tcp 1040 ------- 0 0.0 4.0 14 21
- 2.923053 2 1 tcp 1040 ------- 0 0.0 4.0 14 21
r 2.943053 2 1 tcp 1040 ------- 0 0.0 4.0 11 18
+ 2.943053 1 3 tcp 1040 ------- 0 0.0 4.0 11 18
- 2.943053 1 3 tcp 1040 ------- 0 0.0 4.0 9 16
r 2.963053 1 3 tcp 1040 ------- 0 0.0 4.0 7 13
+ 2.963053 3 4 tcp 1040 ------- 0 0.0 4.0 7 13
- 2.963053 3 4 tcp 1040 ------- 0 0.0 4.0 7 13
r 2.96472 2 1 tcp 1040 ------- 0 0.0 4.0 12 19
+ 2.96472 1 3 tcp 1040 ------- 0 0.0 4.0 12 19
r 3.015827 3 4 tcp 1040 ------- 0 0.0 4.0 7 13
+ 3.015827 4 3 ack 40 ------- 0 4.0 0.0 7 22
- 3.015827 4 3 ack 40 ------- 0 4.0 0.0 7 22
r 3.065933 4 3 ack 40 ------- 0 4.0 0.0 7 22
+ 3.065933 3 1 ack 40 ------- 0 4.0 0.0 7 22
- 3.065933 3 1 ack 40 ------- 0 4.0 0.0 7 22
r 3.073053 2 1 tcp 1040 ------- 0 0.0 4.0 13 20
+ 3.073053 1 3 tcp 1040 ------- 0 0.0 4.0 13 20
- 3.073053 1 3 tcp 1040 ------- 0 0.0 4.0 10 17
r 3.093053 1 3 tcp 1040 ------- 0 0.0 4.0 8 14
+ 3.093053 3 4 tcp 1040 ------- 0 0.0 4.0 8 14
- 3.093053 3 4 tcp 1040 ------- 0 0.0 4.0 8 14
r 3.09472 2 1 tcp 1040 ------- 0 0.0 4.0 14 21
+ 3.09472 1 3 tcp 1040 ------- 0 0.0 4.0 14 21
r 3.145827 3 4 tcp 1040 ------- 0 0.0 4.0 8 14
+ 3.145827 4 3 ack 40 ------- 0 4.0 0.0 8 23
- 3.145827 4 3 ack 40 ------- 0 4.0 0.0 8 23
r 3.195933 4 3 ack 40 ------- 0 4.0 0.0 8 23
+ 3.195933 3 1 ack 40 ------- 0 4.0 0.0 8 23
- 3.195933 3 1 ack 40 ------- 0 4.0 0.0 8 23
- 3.203053 1 3 tcp 1040 ------- 0 0.0 4.0 11 18
r 3.216767 3 1 ack 40 ------- 0 4.0 0.0 7 22
+ 3.216767 1 2 ack 40 ------- 0 4.0 0.0 7 22
- 3.216767 1 2 ack 40 ------- 0 4.0 0.0 7 22
r 3.223053 1 3 tcp 1040 ------- 0 0.0 4.0 9 16
+ 3.223053 3 4 tcp 1040 ------- 0 0.0 4.0 9 16
- 3.223053 3 4 tcp 1040 ------- 0 0.0 4.0 9 16
r 3.275827 3 4 tcp 1040 ------- 0 0.0 4.0 9 16
+ 3.275827 4 3 ack 40 ------- 0 4.0 0.0 9 24
- 3.275827 4 3 ack 40 ------- 0 4.0 0.0 9 24
r 3.325933 4 3 ack 40 ------- 0 4.0 0.0 9 24
+ 3.325933 3 1 ack 40 ------- 0 4.0 0.0 9 24
- 3.325933 3 1 ack 40 ------- 0 4.0 0.0 9 24
- 3.333053 1 3 tcp 1040 ------- 0 0.0 4.0 12 19
r 3.346767 3 1 ack 40 ------- 0 4.0 0.0 8 23
+ 3.346767 1 2 ack 40 ------- 0 4.0 0.0 8 23
- 3.346767 1 2 ack 40 ------- 0 4.0 0.0 8 23
r 3.353053 1 3 tcp 1040 ------- 0 0.0 4.0 10 17
+ 3.353053 3 4 tcp 1040 ------- 0 0.0 4.0 10 17
- 3.353053 3 4 tcp 1040 ------- 0 0.0 4.0 10 17
r 3.371767 1 2 ack 40 ------- 0 4.0 0.0 7 22
+ 3.371767 2 0 ack 40 ------- 0 4.0 0.0 7 22
- 3.371767 2 0 ack 40 ------- 0 4.0 0.0 7 22
r 3.381873 2 0 ack 40 ------- 0 4.0 0.0 7 22
+ 3.381873 0 2 tcp 1040 ------- 0 0.0 4.0 15 25
- 3.381873 0 2 tcp 1040 ------- 0 0.0 4.0 15 25
+ 3.381873 0 2 tcp 1040 ------- 0 0.0 4.0 16 26
- 3.384647 0 2 tcp 1040 ------- 0 0.0 4.0 16 26
r 3.394647 0 2 tcp 1040 ------- 0 0.0 4.0 15 25
+ 3.394647 2 1 tcp 1040 ------- 0 0.0 4.0 15 25
- 3.394647 2 1 tcp 1040 ------- 0 0.0 4.0 15 25
r 3.39742 0 2 tcp 1040 ------- 0 0.0 4.0 16 26
+ 3.39742 2 1 tcp 1040 ------- 0 0.0 4.0 16 26
r 3.405827 3 4 tcp 1040 ------- 0 0.0 4.0 10 17
+ 3.405827 4 3 ack 40 ------- 0 4.0 0.0 10 27
- 3.405827 4 3 ack 40 ------- 0 4.0 0.0 10 27
- 3.416313 2 1 tcp 1040 ------- 0 0.0 4.0 16 26
r 3.455933 4 3 ack 40 ------- 0 4.0 0.0 10 27
+ 3.455933 3 1 ack 40 ------- 0 4.0 0.0 10 27
- 3.455933 3 1 ack 40 ------- 0 4.0 0.0 10 27
- 3.463053 1 3 tcp 1040 ------- 0 0.0 4.0 13 20
r 3.476767 3 1 ack 40 ------- 0 4.0 0.0 9 24
+ 3.476767 1 2 ack 40 ------- 0 4.0 0.0 9 24
- 3.476767 1 2 ack 40 ------- 0 4.0 0.0 9 24
r 3.483053 1 3 tcp 1040 ------- 0 0.0 4.0 11 18
+ 3.483053 3 4 tcp 1040 ------- 0 0.0 4.0 11 18
- 3.483053 3 4 tcp 1040 ------- 0 0.0 4.0 11 18
r 3.501767 1 2 ack 40 ------- 0 4.0 0.0 8 23
+ 3.501767 2 0 ack 40 ------- 0 4.0 0.0 8 23
- 3.501767 2 0 ack 40 ------- 0 4.0 0.0 8 23
r 3.511873 2 0 ack 40 ------- 0 4.0 0.0 8 23
+ 3.511873 0 2 tcp 1040 ------- 0 0.0 4.0 17 28
- 3.511873 0 2 tcp 1040 ------- 0 0.0 4.0 17 28
+ 3.511873 0 2 tcp 1040 ------- 0 0.0 4.0 18 29
- 3.514647 0 2 tcp 1040 ------- 0 0.0 4.0 18 29
r 3.524647 0 2 tcp 1040 ------- 0 0.0 4.0 17 28
+ 3.524647 2 1 tcp 1040 ------- 0 0.0 4.0 17 28
- 3.524647 2 1 tcp 1040 ------- 0 0.0 4.0 17 28
r 3.52742 0 2 tcp 1040 ------- 0 0.0 4.0 18 29
+ 3.52742 2 1 tcp 1040 ------- 0 0.0 4.0 18 29
r 3.535827 3 4 tcp 1040 ------- 0 0.0 4.0 11 18
+ 3.535827 4 3 ack 40 ------- 0 4.0 0.0 11 30
- 3.535827 4 3 ack 40 ------- 0 4.0 0.0 11 30
- 3.546313 2 1 tcp 1040 ------- 0 0.0 4.0 18 29
r 3.566313 2 1 tcp 1040 ------- 0 0.0 4.0 15 25
+ 3.566313 1 3 tcp 1040 ------- 0 0.0 4.0 15 25
r 3.585933 4 3 ack 40 ------- 0 4.0 0.0 11 30
+ 3.585933 3 1 ack 40 ------- 0 4.0 0.0 11 30
- 3.585933 3 1 ack 40 ------- 0 4.0 0.0 11 30
r 3.58798 2 1 tcp 1040 ------- 0 0.0 4.0 16 26
+ 3.58798 1 3 tcp 1040 ------- 0 0.0 4.0 16 26
- 3.593053 1 3 tcp 1040 ------- 0 0.0 4.0 14 21
r 3.606767 3 1 ack 40 ------- 0 4.0 0.0 10 27
+ 3.606767 1 2 ack 40 ------- 0 4.0 0.0 10 27
- 3.606767 1 2 ack 40 ------- 0 4.0 0.0 10 27
r 3.613053 1 3 tcp 1040 ------- 0 0.0 4.0 12 19
+ 3.613053 3 4 tcp 1040 ------- 0 0.0 4.0 12 19
- 3.613053 3 4 tcp 1040 ------- 0 0.0 4.0 12 19
r 3.631767 1 2 ack 40 ------- 0 4.0 0.0 9 24
+ 3.631767 2 0 ack 40 ------- 0 4.0 0.0 9 24
- 3.631767 2 0 ack 40 ------- 0 4.0 0.0 9 24
r 3.641873 2 0 ack 40 ------- 0 4.0 0.0 9 24
+ 3.641873 0 2 tcp 1040 ------- 0 0.0 4.0 19 31
- 3.641873 0 2 tcp 1040 ------- 0 0.0 4.0 19 31
+ 3.641873 0 2 tcp 1040 ------- 0 0.0 4.0 20 32
- 3.644647 0 2 tcp 1040 ------- 0 0.0 4.0 20 32
r 3.654647 0 2 tcp 1040 ------- 0 0.0 4.0 19 31
+ 3.654647 2 1 tcp 1040 ------- 0 0.0 4.0 19 31
- 3.654647 2 1 tcp 1040 ------- 0 0.0 4.0 19 31
r 3.65742 0 2 tcp 1040 ------- 0 0.0 4.0 20 32
+ 3.65742 2 1 tcp 1040 ------- 0 0.0 4.0 20 32
r 3.665827 3 4 tcp 1040 ------- 0 0.0 4.0 12 19
+ 3.665827 4 3 ack 40 ------- 0 4.0 0.0 12 33
- 3.665827 4 3 ack 40 ------- 0 4.0 0.0 12 33
- 3.676313 2 1 tcp 1040 ------- 0 0.0 4.0 20 32
r 3.696313 2 1 tcp 1040 ------- 0 0.0 4.0 17 28
+ 3.696313 1 3 tcp 1040 ------- 0 0.0 4.0 17 28
r 3.715933 4 3 ack 40 ------- 0 4.0 0.0 12 33
+ 3.715933 3 1 ack 40 ------- 0 4.0 0.0 12 33
- 3.715933 3 1 ack 40 ------- 0 4.0 0.0 12 33
r 3.71798 2 1 tcp 1040 ------- 0 0.0 4.0 18 29
+ 3.71798 1 3 tcp 1040 ------- 0 0.0 4.0 18 29
- 3.723053 1 3 tcp 1040 ------- 0 0.0 4.0 15 25
r 3.736767 3 1 ack 40 ------- 0 4.0 0.0 11 30
+ 3.736767 1 2 ack 40 ------- 0 4.0 0.0 11 30
- 3.736767 1 2 ack 40 ------- 0 4.0 0.0 11 30
r 3.743053 1 3 tcp 1040 ------- 0 0.0 4.0 13 20
+ 3.743053 3 4 tcp 1040 ------- 0 0.0 4.0 13 20
- 3.743053 3 4 tcp 1040 ------- 0 0.0 4.0 13 20
r 3.761767 1 2 ack 40 ------- 0 4.0 0.0 10 27
+ 3.761767 2 0 ack 40 ------- 0 4.0 0.0 10 27
- 3.761767 2 0 ack 40 ------- 0 4.0 0.0 10 27
r 3.771873 2 0 ack 40 ------- 0 4.0 0.0 10 27
+ 3.771873 0 2 tcp 1040 ------- 0 0.0 4.0 21 34
- 3.771873 0 2 tcp 1040 ------- 0 0.0 4.0 21 34
+ 3.771873 0 2 tcp 1040 ------- 0 0.0 4.0 22 35
- 3.774647 0 2 tcp 1040 ------- 0 0.0 4.0 22 35
r 3.784647 0 2 tcp 1040 ------- 0 0.0 4.0 21 34
+ 3.784647 2 1 tcp 1040 ------- 0 0.0 4.0 21 34
- 3.784647 2 1 tcp 1040 ------- 0 0.0 4.0 21 34
r 3.78742 0 2 tcp 1040 ------- 0 0.0 4.0 22 35
+ 3.78742 2 1 tcp 1040 ------- 0 0.0 4.0 22 35
r 3.795827 3 4 tcp 1040 ------- 0 0.0 4.0 13 20
+ 3.795827 4 3 ack 40 ------- 0 4.0 0.0 13 36
- 3.795827 4 3 ack 40 ------- 0 4.0 0.0 13 36
- 3.806313 2 1 tcp 1040 ------- 0 0.0 4.0 22 35
r 3.826313 2 1 tcp 1040 ------- 0 0.0 4.0 19 31
+ 3.826313 1 3 tcp 1040 ------- 0 0.0 4.0 19 31
r 3.845933 4 3 ack 40 ------- 0 4.0 0.0 13 36
+ 3.845933 3 1 ack 40 ------- 0 4.0 0.0 13 36
- 3.845933 3 1 ack 40 ------- 0 4.0 0.0 13 36
r 3.84798 2 1 tcp 1040 ------- 0 0.0 4.0 20 32
+ 3.84798 1 3 tcp 1040 ------- 0 0.0 4.0 20 32
- 3.853053 1 3 tcp 1040 ------- 0 0.0 4.0 16 26
r 3.866767 3 1 ack 40 ------- 0 4.0 0.0 12 33
+ 3.866767 1 2 ack 40 ------- 0 4.0 0.0 12 33
- 3.866767 1 2 ack 40 ------- 0 4.0 0.0 12 33
r 3.873053 1 3 tcp 1040 ------- 0 0.0 4.0 14 21
+ 3.873053 3 4 tcp 1040 ------- 0 0.0 4.0 14 21
- 3.873053 3 4 tcp 1040 ------- 0 0.0 4.0 14 21
r 3.891767 1 2 ack 40 ------- 0 4.0 0.0 11 30
+ 3.891767 2 0 ack 40 ------- 0 4.0 0.0 11 30
- 3.891767 2 0 ack 40 ------- 0 4.0 0.0 11 30
r 3.901873 2 0 ack 40 ------- 0 4.0 0.0 11 30
+ 3.901873 0 2 tcp 1040 ------- 0 0.0 4.0 23 37
- 3.901873 0 2 tcp 1040 ------- 0 0.0 4.0 23 37
+ 3.901873 0 2 tcp 1040 ------- 0 0.0 4.0 24 38
- 3.904647 0 2 tcp 1040 ------- 0 0.0 4.0 24 38
r 3.914647 0 2 tcp 1040 ------- 0 0.0 4.0 23 37
+ 3.914647 2 1 tcp 1040 ------- 0 0.0 4.0 23 37
- 3.914647 2 1 tcp 1040 ------- 0 0.0 4.0 23 37
r 3.91742 0 2 tcp 1040 ------- 0 0.0 4.0 24 38
+ 3.91742 2 1 tcp 1040 ------- 0 0.0 4.0 24 38
r 3.925827 3 4 tcp 1040 ------- 0 0.0 4.0 14 21
+ 3.925827 4 3 ack 40 ------- 0 4.0 0.0 14 39
- 3.925827 4 3 ack 40 ------- 0 4.0 0.0 14 39
- 3.936313 2 1 tcp 1040 ------- 0 0.0 4.0 24 38
r 3.956313 2 1 tcp 1040 ------- 0 0.0 4.0 21 34
+ 3.956313 1 3 tcp 1040 ------- 0 0.0 4.0 21 34
r 3.975933 4 3 ack 40 ------- 0 4.0 0.0 14 39
+ 3.975933 3 1 ack 40 ------- 0 4.0 0.0 14 39
- 3.975933 3 1 ack 40 ------- 0 4.0 0.0 14 39
r 3.97798 2 1 tcp 1040 ------- 0 0.0 4.0 22 35
+ 3.97798 1 3 tcp 1040 ------- 0 0.0 4.0 22 35
- 3.983053 1 3 tcp 1040 ------- 0 0.0 4.0 17 28
r 3.996767 3 1 ack 40 ------- 0 4.0 0.0 13 36
+ 3.996767 1 2 ack 40 ------- 0 4.0 0.0 13 36
- 3.996767 1 2 ack 40 ------- 0 4.0 0.0 13 36
r 4.003053 1 3 tcp 1040 ------- 0 0.0 4.0 15 25
+ 4.003053 3 4 tcp 1040 ------- 0 0.0 4.0 15 25
- 4.003053 3 4 tcp 1040 ------- 0 0.0 4.0 15 25
r 4.021767 1 2 ack 40 ------- 0 4.0 0.0 12 33
+ 4.021767 2 0 ack 40 ------- 0 4.0 0.0 12 33
- 4.021767 2 0 ack 40 ------- 0 4.0 0.0 12 33
r 4.031873 2 0 ack 40 ------- 0 4.0 0.0 12 33
+ 4.031873 0 2 tcp 1040 ------- 0 0.0 4.0 25 40
- 4.031873 0 2 tcp 1040 ------- 0 0.0 4.0 25 40
+ 4.031873 0 2 tcp 1040 ------- 0 0.0 4.0 26 41
- 4.034647 0 2 tcp 1040 ------- 0 0.0 4.0 26 41
r 4.044647 0 2 tcp 1040 ------- 0 0.0 4.0 25 40
+ 4.044647 2 1 tcp 1040 ------- 0 0.0 4.0 25 40
- 4.044647 2 1 tcp 1040 ------- 0 0.0 4.0 25 40
r 4.04742 0 2 tcp 1040 ------- 0 0.0 4.0 26 41
+ 4.04742 2 1 tcp 1040 ------- 0 0.0 4.0 26 41
r 4.055827 3 4 tcp 1040 ------- 0 0.0 4.0 15 25
+ 4.055827 4 3 ack 40 ------- 0 4.0 0.0 15 42
- 4.055827 4 3 ack 40 ------- 0 4.0 0.0 15 42
- 4.066313 2 1 tcp 1040 ------- 0 0.0 4.0 26 41
r 4.086313 2 1 tcp 1040 ------- 0 0.0 4.0 23 37
+ 4.086313 1 3 tcp 1040 ------- 0 0.0 4.0 23 37
r 4.105933 4 3 ack 40 ------- 0 4.0 0.0 15 42
+ 4.105933 3 1 ack 40 ------- 0 4.0 0.0 15 42
- 4.105933 3 1 ack 40 ------- 0 4.0 0.0 15 42
r 4.10798 2 1 tcp 1040 ------- 0 0.0 4.0 24 38
+ 4.10798 1 3 tcp 1040 ------- 0 0.0 4.0 24 38
- 4.113053 1 3 tcp 1040 ------- 0 0.0 4.0 18 29
r 4.126767 3 1 ack 40 ------- 0 4.0 0.0 14 39
+ 4.126767 1 2 ack 40 ------- 0 4.0 0.0 14 39
- 4.126767 1 2 ack 40 ------- 0 4.0 0.0 14 39
r 4.133053 1 3 tcp 1040 ------- 0 0.0 4.0 16 26
+ 4.133053 3 4 tcp 1040 ------- 0 0.0 4.0 16 26
- 4.133053 3 4 tcp 1040 ------- 0 0.0 4.0 16 26
r 4.151767 1 2 ack 40 ------- 0 4.0 0.0 13 36
+ 4.151767 2 0 ack 40 ------- 0 4.0 0.0 13 36
- 4.151767 2 0 ack 40 ------- 0 4.0 0.0 13 36
r 4.161873 2 0 ack 40 ------- 0 4.0 0.0 13 36
+ 4.161873 0 2 tcp 1040 ------- 0 0.0 4.0 27 43
- 4.161873 0 2 tcp 1040 ------- 0 0.0 4.0 27 43
+ 4.161873 0 2 tcp 1040 ------- 0 0.0 4.0 28 44
- 4.164647 0 2 tcp 1040 ------- 0 0.0 4.0 28 44
r 4.174647 0 2 tcp 1040 ------- 0 0.0 4.0 27 43
+ 4.174647 2 1 tcp 1040 ------- 0 0.0 4.0 27 43
- 4.174647 2 1 tcp 1040 ------- 0 0.0 4.0 27 43
r 4.17742 0 2 tcp 1040 ------- 0 0.0 4.0 28 44
+ 4.17742 2 1 tcp 1040 ------- 0 0.0 4.0 28 44
r 4.185827 3 4 tcp 1040 ------- 0 0.0 4.0 16 26
+ 4.185827 4 3 ack 40 ------- 0 4.0 0.0 16 45
- 4.185827 4 3 ack 40 ------- 0 4.0 0.0 16 45
- 4.196313 2 1 tcp 1040 ------- 0 0.0 4.0 28 44
r 4.216313 2 1 tcp 1040 ------- 0 0.0 4.0 25 40
+ 4.216313 1 3 tcp 1040 ------- 0 0.0 4.0 25 40
r 4.235933 4 3 ack 40 ------- 0 4.0 0.0 16 45
+ 4.235933 3 1 ack 40 ------- 0 4.0 0.0 16 45
- 4.235933 3 1 ack 40 ------- 0 4.0 0.0 16 45
r 4.23798 2 1 tcp 1040 ------- 0 0.0 4.0 26 41
+ 4.23798 1 3 tcp 1040 ------- 0 0.0 4.0 26 41
- 4.243053 1 3 tcp 1040 ------- 0 0.0 4.0 19 31
r 4.256767 3 1 ack 40 ------- 0 4.0 0.0 15 42
+ 4.256767 1 2 ack 40 ------- 0 4.0 0.0 15 42
- 4.256767 1 2 ack 40 ------- 0 4.0 0.0 15 42
r 4.263053 1 3 tcp 1040 ------- 0 0.0 4.0 17 28
+ 4.263053 3 4 tcp 1040 ------- 0 0.0 4.0 17 28
- 4.263053 3 4 tcp 1040 ------- 0 0.0 4.0 17 28
r 4.281767 1 2 ack 40 ------- 0 4.0 0.0 14 39
+ 4.281767 2 0 ack 40 ------- 0 4.0 0.0 14 39
- 4.281767 2 0 ack 40 ------- 0 4.0 0.0 14 39
r 4.291873 2 0 ack 40 ------- 0 4.0 0.0 14 39
+ 4.291873 0 2 tcp 1040 ------- 0 0.0 4.0 29 46
- 4.291873 0 2 tcp 1040 ------- 0 0.0 4.0 29 46
+ 4.291873 0 2 tcp 1040 ------- 0 0.0 4.0 30 47
- 4.294647 0 2 tcp 1040 ------- 0 0.0 4.0 30 47
r 4.304647 0 2 tcp 1040 ------- 0 0.0 4.0 29 46
+ 4.304647 2 1 tcp 1040 ------- 0 0.0 4.0 29 46
- 4.304647 2 1 tcp 1040 ------- 0 0.0 4.0 29 46
r 4.30742 0 2 tcp 1040 ------- 0 0.0 4.0 30 47
+ 4.30742 2 1 tcp 1040 ------- 0 0.0 4.0 30 47
r 4.315827 3 4 tcp 1040 ------- 0 0.0 4.0 17 28
+ 4.315827 4 3 ack 40 ------- 0 4.0 0.0 17 48
- 4.315827 4 3 ack 40 ------- 0 4.0 0.0 17 48
- 4.326313 2 1 tcp 1040 ------- 0 0.0 4.0 30 47
r 4.346313 2 1 tcp 1040 ------- 0 0.0 4.0 27 43
+ 4.346313 1 3 tcp 1040 ------- 0 0.0 4.0 27 43
r 4.365933 4 3 ack 40 ------- 0 4.0 0.0 17 48
+ 4.365933 3 1 ack 40 ------- 0 4.0 0.0 17 48
- 4.365933 3 1 ack 40 ------- 0 4.0 0.0 17 48
r 4.36798 2 1 tcp 1040 ------- 0 0.0 4.0 28 44
+ 4.36798 1 3 tcp 1040 ------- 0 0.0 4.0 28 44
- 4.373053 1 3 tcp 1040 ------- 0 0.0 4.0 20 32
r 4.386767 3 1 ack 40 ------- 0 4.0 0.0 16 45
+ 4.386767 1 2 ack 40 ------- 0 4.0 0.0 16 45
- 4.386767 1 2 ack 40 ------- 0 4.0 0.0 16 45
r 4.393053 1 3 tcp 1040 ------- 0 0.0 4.0 18 29
+ 4.393053 3 4 tcp 1040 ------- 0 0.0 4.0 18 29
- 4.393053 3 4 tcp 1040 ------- 0 0.0 4.0 18 29
r 4.411767 1 2 ack 40 ------- 0 4.0 0.0 15 42
+ 4.411767 2 0 ack 40 ------- 0 4.0 0.0 15 42
- 4.411767 2 0 ack 40 ------- 0 4.0 0.0 15 42
r 4.421873 2 0 ack 40 ------- 0 4.0 0.0 15 42
+ 4.421873 0 2 tcp 1040 ------- 0 0.0 4.0 31 49
- 4.421873 0 2 tcp 1040 ------- 0 0.0 4.0 31 49
+ 4.421873 0 2 tcp 1040 ------- 0 0.0 4.0 32 50
- 4.424647 0 2 tcp 1040 ------- 0 0.0 4.0 32 50
r 4.434647 0 2 tcp 1040 ------- 0 0.0 4.0 31 49
+ 4.434647 2 1 tcp 1040 ------- 0 0.0 4.0 31 49
- 4.434647 2 1 tcp 1040 ------- 0 0.0 4.0 31 49
r 4.43742 0 2 tcp 1040 ------- 0 0.0 4.0 32 50
+ 4.43742 2 1 tcp 1040 ------- 0 0.0 4.0 32 50
r 4.445827 3 4 tcp 1040 ------- 0 0.0 4.0 18 29
+ 4.445827 4 3 ack 40 ------- 0 4.0 0.0 18 51
- 4.445827 4 3 ack 40 ------- 0 4.0 0.0 18 51
- 4.456313 2 1 tcp 1040 ------- 0 0.0 4.0 32 50
r 4.476313 2 1 tcp 1040 ------- 0 0.0 4.0 29 46
+ 4.476313 1 3 tcp 1040 ------- 0 0.0 4.0 29 46
r 4.495933 4 3 ack 40 ------- 0 4.0 0.0 18 51
+ 4.495933 3 1 ack 40 ------- 0 4.0 0.0 18 51
- 4.495933 3 1 ack 40 ------- 0 4.0 0.0 18 51
r 4.49798 2 1 tcp 1040 ------- 0 0.0 4.0 30 47
+ 4.49798 1 3 tcp 1040 ------- 0 0.0 4.0 30 47
- 4.503053 1 3 tcp 1040 ------- 0 0.0 4.0 21 34
r 4.516767 3 1 ack 40 ------- 0 4.0 0.0 17 48
+ 4.516767 1 2 ack 40 ------- 0 4.0 0.0 17 48
- 4.516767 1 2 ack 40 ------- 0 4.0 0.0 17 48
r 4.523053 1 3 tcp 1040 ------- 0 0.0 4.0 19 31
+ 4.523053 3 4 tcp 1040 ------- 0 0.0 4.0 19 31
- 4.523053 3 4 tcp 1040 ------- 0 0.0 4.0 19 31
r 4.541767 1 2 ack 40 ------- 0 4.0 0.0 16 45
+ 4.541767 2 0 ack 40 ------- 0 4.0 0.0 16 45
- 4.541767 2 0 ack 40 ------- 0 4.0 0.0 16 45
r 4.551873 2 0 ack 40 ------- 0 4.0 0.0 16 45
+ 4.551873 0 2 tcp 1040 ------- 0 0.0 4.0 33 52
- 4.551873 0 2 tcp 1040 ------- 0 0.0 4.0 33 52
+ 4.551873 0 2 tcp 1040 ------- 0 0.0 4.0 34 53
- 4.554647 0 2 tcp 1040 ------- 0 0.0 4.0 34 53
r 4.564647 0 2 tcp 1040 ------- 0 0.0 4.0 33 52
+ 4.564647 2 1 tcp 1040 ------- 0 0.0 4.0 33 52
- 4.564647 2 1 tcp 1040 ------- 0 0.0 4.0 33 52
r 4.56742 0 2 tcp 1040 ------- 0 0.0 4.0 34 53
+ 4.56742 2 1 tcp 1040 ------- 0 0.0 4.0 34 53
r 4.575827 3 4 tcp 1040 ------- 0 0.0 4.0 19 31
+ 4.575827 4 3 ack 40 ------- 0 4.0 0.0 19 54
- 4.575827 4 3 ack 40 ------- 0 4.0 0.0 19 54
- 4.586313 2 1 tcp 1040 ------- 0 0.0 4.0 34 53
r 4.606313 2 1 tcp 1040 ------- 0 0.0 4.0 31 49
+ 4.606313 1 3 tcp 1040 ------- 0 0.0 4.0 31 49
r 4.625933 4 3 ack 40 ------- 0 4.0 0.0 19 54
+ 4.625933 3 1 ack 40 ------- 0 4.0 0.0 19 54
- 4.625933 3 1 ack 40 ------- 0 4.0 0.0 19 54
r 4.62798 2 1 tcp 1040 ------- 0 0.0 4.0 32 50
+ 4.62798 1 3 tcp 1040 ------- 0 0.0 4.0 32 50
- 4.633053 1 3 tcp 1040 ------- 0 0.0 4.0 22 35
r 4.646767 3 1 ack 40 ------- 0 4.0 0.0 18 51
+ 4.646767 1 2 ack 40 ------- 0 4.0 0.0 18 51
- 4.646767 1 2 ack 40 ------- 0 4.0 0.0 18 51
r 4.653053 1 3 tcp 1040 ------- 0 0.0 4.0 20 32
+ 4.653053 3 4 tcp 1040 ------- 0 0.0 4.0 20 32
- 4.653053 3 4 tcp 1040 ------- 0 0.0 4.0 20 32
r 4.671767 1 2 ack 40 ------- 0 4.0 0.0 17 48
+ 4.671767 2 0 ack 40 ------- 0 4.0 0.0 17 48
- 4.671767 2 0 ack 40 ------- 0 4.0 0.0 17 48
r 4.681873 2 0 ack 40 ------- 0 4.0 0.0 17 48
+ 4.681873 0 2 tcp 1040 ------- 0 0.0 4.0 35 55
- 4.681873 0 2 tcp 1040 ------- 0 0.0 4.0 35 55
+ 4.681873 0 2 tcp 1040 ------- 0 0.0 4.0 36 56
- 4.684647 0 2 tcp 1040 ------- 0 0.0 4.0 36 56
r 4.694647 0 2 tcp 1040 ------- 0 0.0 4.0 35 55
+ 4.694647 2 1 tcp 1040 ------- 0 0.0 4.0 35 55
- 4.694647 2 1 tcp 1040 ------- 0 0.0 4.0 35 55
r 4.69742 0 2 tcp 1040 ------- 0 0.0 4.0 36 56
+ 4.69742 2 1 tcp 1040 ------- 0 0.0 4.0 36 56
r 4.705827 3 4 tcp 1040 ------- 0 0.0 4.0 20 32
+ 4.705827 4 3 ack 40 ------- 0 4.0 0.0 20 57
- 4.705827 4 3 ack 40 ------- 0 4.0 0.0 20 57
- 4.716313 2 1 tcp 1040 ------- 0 0.0 4.0 36 56
r 4.736313 2 1 tcp 1040 ------- 0 0.0 4.0 33 52
+ 4.736313 1 3 tcp 1040 ------- 0 0.0 4.0 33 52
r 4.755933 4 3 ack 40 ------- 0 4.0 0.0 20 57
+ 4.755933 3 1 ack 40 ------- 0 4.0 0.0 20 57
- 4.755933 3 1 ack 40 ------- 0 4.0 0.0 20 57
r 4.75798 2 1 tcp 1040 ------- 0 0.0 4.0 34 53
+ 4.75798 1 3 tcp 1040 ------- 0 0.0 4.0 34 53
d 4.75798 1 3 tcp 1040 ------- 0 0.0 4.0 34 53
- 4.763053 1 3 tcp 1040 ------- 0 0.0 4.0 23 37
r 4.776767 3 1 ack 40 ------- 0 4.0 0.0 19 54
+ 4.776767 1 2 ack 40 ------- 0 4.0 0.0 19 54
- 4.776767 1 2 ack 40 ------- 0 4.0 0.0 19 54
r 4.783053 1 3 tcp 1040 ------- 0 0.0 4.0 21 34
+ 4.783053 3 4 tcp 1040 ------- 0 0.0 4.0 21 34
- 4.783053 3 4 tcp 1040 ------- 0 0.0 4.0 21 34
r 4.801767 1 2 ack 40 ------- 0 4.0 0.0 18 51
+ 4.801767 2 0 ack 40 ------- 0 4.0 0.0 18 51
- 4.801767 2 0 ack 40 ------- 0 4.0 0.0 18 51
r 4.811873 2 0 ack 40 ------- 0 4.0 0.0 18 51
+ 4.811873 0 2 tcp 1040 ------- 0 0.0 4.0 37 58
- 4.811873 0 2 tcp 1040 ------- 0 0.0 4.0 37 58
+ 4.811873 0 2 tcp 1040 ------- 0 0.0 4.0 38 59
- 4.814647 0 2 tcp 1040 ------- 0 0.0 4.0 38 59
r 4.824647 0 2 tcp 1040 ------- 0 0.0 4.0 37 58
+ 4.824647 2 1 tcp 1040 ------- 0 0.0 4.0 37 58
- 4.824647 2 1 tcp 1040 ------- 0 0.0 4.0 37 58
r 4.82742 0 2 tcp 1040 ------- 0 0.0 4.0 38 59
+ 4.82742 2 1 tcp 1040 ------- 0 0.0 4.0 38 59
r 4.835827 3 4 tcp 1040 ------- 0 0.0 4.0 21 34
+ 4.835827 4 3 ack 40 ------- 0 4.0 0.0 21 60
- 4.835827 4 3 ack 40 ------- 0 4.0 0.0 21 60
- 4.846313 2 1 tcp 1040 ------- 0 0.0 4.0 38 59
r 4.866313 2 1 tcp 1040 ------- 0 0.0 4.0 35 55
+ 4.866313 1 3 tcp 1040 ------- 0 0.0 4.0 35 55
r 4.885933 4 3 ack 40 ------- 0 4.0 0.0 21 60
+ 4.885933 3 1 ack 40 ------- 0 4.0 0.0 21 60
- 4.885933 3 1 ack 40 ------- 0 4.0 0.0 21 60
r 4.88798 2 1 tcp 1040 ------- 0 0.0 4.0 36 56
+ 4.88798 1 3 tcp 1040 ------- 0 0.0 4.0 36 56
d 4.88798 1 3 tcp 1040 ------- 0 0.0 4.0 36 56
- 4.893053 1 3 tcp 1040 ------- 0 0.0 4.0 24 38
r 4.906767 3 1 ack 40 ------- 0 4.0 0.0 20 57
+ 4.906767 1 2 ack 40 ------- 0 4.0 0.0 20 57
- 4.906767 1 2 ack 40 ------- 0 4.0 0.0 20 57
r 4.913053 1 3 tcp 1040 ------- 0 0.0 4.0 22 35
+ 4.913053 3 4 tcp 1040 ------- 0 0.0 4.0 22 35
- 4.913053 3 4 tcp 1040 ------- 0 0.0 4.0 22 35
r 4.931767 1 2 ack 40 ------- 0 4.0 0.0 19 54
+ 4.931767 2 0 ack 40 ------- 0 4.0 0.0 19 54
- 4.931767 2 0 ack 40 ------- 0 4.0 0.0 19 54
r 4.941873 2 0 ack 40 ------- 0 4.0 0.0 19 54
+ 4.941873 0 2 tcp 1040 ------- 0 0.0 4.0 39 61
- 4.941873 0 2 tcp 1040 ------- 0 0.0 4.0 39 61
r 4.954647 0 2 tcp 1040 ------- 0 0.0 4.0 39 61
+ 4.954647 2 1 tcp 1040 ------- 0 0.0 4.0 39 61
- 4.954647 2 1 tcp 1040 ------- 0 0.0 4.0 39 61