+ 0.2 0 1 ping 64 ------- 0 0.0 5.0 -1 0
- 0.2 0 1 ping 64 ------- 0 0.0 5.0 -1 0
r 0.2662 0 1 ping 64 ------- 0 0.0 5.0 -1 0
+ 0.2662 1 2 ping 64 ------- 0 0.0 5.0 -1 0
- 0.2662 1 2 ping 64 ------- 0 0.0 5.0 -1 0
r 0.3324 1 2 ping 64 ------- 0 0.0 5.0 -1 0
+ 0.3324 2 3 ping 64 ------- 0 0.0 5.0 -1 0
- 0.3324 2 3 ping 64 ------- 0 0.0 5.0 -1 0
r 0.3986 2 3 ping 64 ------- 0 0.0 5.0 -1 0
+ 0.3986 3 4 ping 64 ------- 0 0.0 5.0 -1 0
- 0.3986 3 4 ping 64 ------- 0 0.0 5.0 -1 0
+ 0.4 5 4 ping 64 ------- 0 5.0 0.0 -1 1
- 0.4 5 4 ping 64 ------- 0 5.0 0.0 -1 1
+ 0.4 0 1 tcp 40 ------- 0 0.1 5.1 0 2
- 0.4 0 1 tcp 40 ------- 0 0.1 5.1 0 2
r 0.447 0 1 tcp 40 ------- 0 0.1 5.1 0 2
+ 0.447 1 2 tcp 40 ------- 0 0.1 5.1 0 2
- 0.447 1 2 tcp 40 ------- 0 0.1 5.1 0 2
r 0.4648 3 4 ping 64 ------- 0 0.0 5.0 -1 0
+ 0.4648 4 5 ping 64 ------- 0 0.0 5.0 -1 0
- 0.4648 4 5 ping 64 ------- 0 0.0 5.0 -1 0
r 0.4662 5 4 ping 64 ------- 0 5.0 0.0 -1 1
+ 0.4662 4 3 ping 64 ------- 0 5.0 0.0 -1 1
- 0.4662 4 3 ping 64 ------- 0 5.0 0.0 -1 1
r 0.494 1 2 tcp 40 ------- 0 0.1 5.1 0 2
+ 0.494 2 3 tcp 40 ------- 0 0.1 5.1 0 2
- 0.494 2 3 tcp 40 ------- 0 0.1 5.1 0 2
r 0.531 4 5 ping 64 ------- 0 0.0 5.0 -1 0
+ 0.531 5 4 ping 64 ------- 0 5.0 0.0 -1 3
- 0.531 5 4 ping 64 ------- 0 5.0 0.0 -1 3
r 0.5324 4 3 ping 64 ------- 0 5.0 0.0 -1 1
+ 0.5324 3 2 ping 64 ------- 0 5.0 0.0 -1 1
- 0.5324 3 2 ping 64 ------- 0 5.0 0.0 -1 1
r 0.541 2 3 tcp 40 ------- 0 0.1 5.1 0 2
+ 0.541 3 4 tcp 40 ------- 0 0.1 5.1 0 2
- 0.541 3 4 tcp 40 ------- 0 0.1 5.1 0 2
r 0.588 3 4 tcp 40 ------- 0 0.1 5.1 0 2
+ 0.588 4 5 tcp 40 ------- 0 0.1 5.1 0 2
- 0.588 4 5 tcp 40 ------- 0 0.1 5.1 0 2
r 0.5972 5 4 ping 64 ------- 0 5.0 0.0 -1 3
+ 0.5972 4 3 ping 64 ------- 0 5.0 0.0 -1 3
- 0.5972 4 3 ping 64 ------- 0 5.0 0.0 -1 3
r 0.5986 3 2 ping 64 ------- 0 5.0 0.0 -1 1
+ 0.5986 2 1 ping 64 ------- 0 5.0 0.0 -1 1
- 0.5986 2 1 ping 64 ------- 0 5.0 0.0 -1 1
r 0.635 4 5 tcp 40 ------- 0 0.1 5.1 0 2
+ 0.635 5 4 ack 40 ------- 0 5.1 0.1 0 4
- 0.635 5 4 ack 40 ------- 0 5.1 0.1 0 4
r 0.6634 4 3 ping 64 ------- 0 5.0 0.0 -1 3
+ 0.6634 3 2 ping 64 ------- 0 5.0 0.0 -1 3
- 0.6634 3 2 ping 64 ------- 0 5.0 0.0 -1 3
r 0.6648 2 1 ping 64 ------- 0 5.0 0.0 -1 1
+ 0.6648 1 0 ping 64 ------- 0 5.0 0.0 -1 1
- 0.6648 1 0 ping 64 ------- 0 5.0 0.0 -1 1
r 0.682 5 4 ack 40 ------- 0 5.1 0.1 0 4
+ 0.682 4 3 ack 40 ------- 0 5.1 0.1 0 4
- 0.682 4 3 ack 40 ------- 0 5.1 0.1 0 4
r 0.729 4 3 ack 40 ------- 0 5.1 0.1 0 4
+ 0.729 3 2 ack 40 ------- 0 5.1 0.1 0 4
- 0.729 3 2 ack 40 ------- 0 5.1 0.1 0 4
r 0.7296 3 2 ping 64 ------- 0 5.0 0.0 -1 3
+ 0.7296 2 1 ping 64 ------- 0 5.0 0.0 -1 3
- 0.7296 2 1 ping 64 ------- 0 5.0 0.0 -1 3
r 0.731 1 0 ping 64 ------- 0 5.0 0.0 -1 1
+ 0.731 0 1 ping 64 ------- 0 0.0 5.0 -1 5
- 0.731 0 1 ping 64 ------- 0 0.0 5.0 -1 5
r 0.776 3 2 ack 40 ------- 0 5.1 0.1 0 4
+ 0.776 2 1 ack 40 ------- 0 5.1 0.1 0 4
- 0.7808 2 1 ack 40 ------- 0 5.1 0.1 0 4
r 0.7958 2 1 ping 64 ------- 0 5.0 0.0 -1 3
+ 0.7958 1 0 ping 64 ------- 0 5.0 0.0 -1 3
- 0.7958 1 0 ping 64 ------- 0 5.0 0.0 -1 3
r 0.7972 0 1 ping 64 ------- 0 0.0 5.0 -1 5
+ 0.7972 1 2 ping 64 ------- 0 0.0 5.0 -1 5
- 0.7972 1 2 ping 64 ------- 0 0.0 5.0 -1 5
+ 0.8 0 1 ping 64 ------- 0 0.0 5.0 -1 6
- 0.8 0 1 ping 64 ------- 0 0.0 5.0 -1 6
r 0.8278 2 1 ack 40 ------- 0 5.1 0.1 0 4
+ 0.8278 1 0 ack 40 ------- 0 5.1 0.1 0 4
- 0.847 1 0 ack 40 ------- 0 5.1 0.1 0 4
r 0.862 1 0 ping 64 ------- 0 5.0 0.0 -1 3
r 0.8634 1 2 ping 64 ------- 0 0.0 5.0 -1 5
+ 0.8634 2 3 ping 64 ------- 0 0.0 5.0 -1 5
- 0.8634 2 3 ping 64 ------- 0 0.0 5.0 -1 5
r 0.8662 0 1 ping 64 ------- 0 0.0 5.0 -1 6
+ 0.8662 1 2 ping 64 ------- 0 0.0 5.0 -1 6
- 0.8662 1 2 ping 64 ------- 0 0.0 5.0 -1 6
r 0.894 1 0 ack 40 ------- 0 5.1 0.1 0 4
+ 0.894 0 1 tcp 1040 ------- 0 0.1 5.1 1 7
- 0.894 0 1 tcp 1040 ------- 0 0.1 5.1 1 7
+ 0.894 0 1 tcp 1040 ------- 0 0.1 5.1 2 8
r 0.9296 2 3 ping 64 ------- 0 0.0 5.0 -1 5
+ 0.9296 3 4 ping 64 ------- 0 0.0 5.0 -1 5
- 0.9296 3 4 ping 64 ------- 0 0.0 5.0 -1 5
r 0.9324 1 2 ping 64 ------- 0 0.0 5.0 -1 6
+ 0.9324 2 3 ping 64 ------- 0 0.0 5.0 -1 6
- 0.9324 2 3 ping 64 ------- 0 0.0 5.0 -1 6
r 0.9958 3 4 ping 64 ------- 0 0.0 5.0 -1 5
+ 0.9958 4 5 ping 64 ------- 0 0.0 5.0 -1 5
- 0.9958 4 5 ping 64 ------- 0 0.0 5.0 -1 5
r 0.9986 2 3 ping 64 ------- 0 0.0 5.0 -1 6
+ 0.9986 3 4 ping 64 ------- 0 0.0 5.0 -1 6
- 0.9986 3 4 ping 64 ------- 0 0.0 5.0 -1 6
+ 1 5 4 ping 64 ------- 0 5.0 0.0 -1 9
- 1 5 4 ping 64 ------- 0 5.0 0.0 -1 9
r 1.062 4 5 ping 64 ------- 0 0.0 5.0 -1 5
r 1.0648 3 4 ping 64 ------- 0 0.0 5.0 -1 6
+ 1.0648 4 5 ping 64 ------- 0 0.0 5.0 -1 6
- 1.0648 4 5 ping 64 ------- 0 0.0 5.0 -1 6
r 1.0662 5 4 ping 64 ------- 0 5.0 0.0 -1 9
+ 1.0662 4 3 ping 64 ------- 0 5.0 0.0 -1 9
- 1.0662 4 3 ping 64 ------- 0 5.0 0.0 -1 9
r 1.131 4 5 ping 64 ------- 0 0.0 5.0 -1 6
+ 1.131 5 4 ping 64 ------- 0 5.0 0.0 -1 10
- 1.131 5 4 ping 64 ------- 0 5.0 0.0 -1 10
r 1.1324 4 3 ping 64 ------- 0 5.0 0.0 -1 9
+ 1.1324 3 2 ping 64 ------- 0 5.0 0.0 -1 9
- 1.1324 3 2 ping 64 ------- 0 5.0 0.0 -1 9
r 1.1972 5 4 ping 64 ------- 0 5.0 0.0 -1 10
+ 1.1972 4 3 ping 64 ------- 0 5.0 0.0 -1 10
- 1.1972 4 3 ping 64 ------- 0 5.0 0.0 -1 10
r 1.1986 3 2 ping 64 ------- 0 5.0 0.0 -1 9
+ 1.1986 2 1 ping 64 ------- 0 5.0 0.0 -1 9
- 1.1986 2 1 ping 64 ------- 0 5.0 0.0 -1 9
r 1.2634 4 3 ping 64 ------- 0 5.0 0.0 -1 10
+ 1.2634 3 2 ping 64 ------- 0 5.0 0.0 -1 10
- 1.2634 3 2 ping 64 ------- 0 5.0 0.0 -1 10
r 1.2648 2 1 ping 64 ------- 0 5.0 0.0 -1 9
+ 1.2648 1 0 ping 64 ------- 0 5.0 0.0 -1 9
- 1.2648 1 0 ping 64 ------- 0 5.0 0.0 -1 9
r 1.3296 3 2 ping 64 ------- 0 5.0 0.0 -1 10
+ 1.3296 2 1 ping 64 ------- 0 5.0 0.0 -1 10
- 1.3296 2 1 ping 64 ------- 0 5.0 0.0 -1 10
r 1.331 1 0 ping 64 ------- 0 5.0 0.0 -1 9
+ 1.331 0 1 ping 64 ------- 0 0.0 5.0 -1 11
d 1.331 0 1 ping 64 ------- 0 0.0 5.0 -1 11
r 1.3958 2 1 ping 64 ------- 0 5.0 0.0 -1 10
+ 1.3958 1 0 ping 64 ------- 0 5.0 0.0 -1 10
- 1.3958 1 0 ping 64 ------- 0 5.0 0.0 -1 10
+ 1.4 0 1 ping 64 ------- 0 0.0 5.0 -1 12
d 1.4 0 1 ping 64 ------- 0 0.0 5.0 -1 12
r 1.462 1 0 ping 64 ------- 0 5.0 0.0 -1 10
+ 1.6 5 4 ping 64 ------- 0 5.0 0.0 -1 13
- 1.6 5 4 ping 64 ------- 0 5.0 0.0 -1 13
r 1.6662 5 4 ping 64 ------- 0 5.0 0.0 -1 13
+ 1.6662 4 3 ping 64 ------- 0 5.0 0.0 -1 13
- 1.6662 4 3 ping 64 ------- 0 5.0 0.0 -1 13
- 1.726 0 1 tcp 1040 ------- 0 0.1 5.1 2 8
r 1.7324 4 3 ping 64 ------- 0 5.0 0.0 -1 13
+ 1.7324 3 2 ping 64 ------- 0 5.0 0.0 -1 13
- 1.7324 3 2 ping 64 ------- 0 5.0 0.0 -1 13
r 1.741 0 1 tcp 1040 ------- 0 0.1 5.1 1 7
+ 1.741 1 2 tcp 1040 ------- 0 0.1 5.1 1 7
- 1.741 1 2 tcp 1040 ------- 0 0.1 5.1 1 7
r 1.7986 3 2 ping 64 ------- 0 5.0 0.0 -1 13
+ 1.7986 2 1 ping 64 ------- 0 5.0 0.0 -1 13
- 1.7986 2 1 ping 64 ------- 0 5.0 0.0 -1 13
