+ 0 0 1 tcp 40 ------- 1 0.0 2.0 0 0
- 0 0 1 tcp 40 ------- 1 0.0 2.0 0 0
r 0.01016 0 1 tcp 40 ------- 1 0.0 2.0 0 0
+ 0.01016 1 2 tcp 40 ------- 1 0.0 2.0 0 0
- 0.01016 1 2 tcp 40 ------- 1 0.0 2.0 0 0
r 0.020267 1 2 tcp 40 ------- 1 0.0 2.0 0 0
+ 0.020267 2 1 ack 40 ------- 1 2.0 0.0 0 1
- 0.020267 2 1 ack 40 ------- 1 2.0 0.0 0 1
r 0.030373 2 1 ack 40 ------- 1 2.0 0.0 0 1
+ 0.030373 1 0 ack 40 ------- 1 2.0 0.0 0 1
- 0.030373 1 0 ack 40 ------- 1 2.0 0.0 0 1
r 0.040533 1 0 ack 40 ------- 1 2.0 0.0 0 1
+ 0.040533 0 1 tcp 1040 ------- 1 0.0 2.0 1 2
- 0.040533 0 1 tcp 1040 ------- 1 0.0 2.0 1 2
+ 0.040533 0 1 tcp 1040 ------- 1 0.0 2.0 2 3
- 0.044693 0 1 tcp 1040 ------- 1 0.0 2.0 2 3
r 0.054693 0 1 tcp 1040 ------- 1 0.0 2.0 1 2
+ 0.054693 1 2 tcp 1040 ------- 1 0.0 2.0 1 2
- 0.054693 1 2 tcp 1040 ------- 1 0.0 2.0 1 2
r 0.058853 0 1 tcp 1040 ------- 1 0.0 2.0 2 3
+ 0.058853 1 2 tcp 1040 ------- 1 0.0 2.0 2 3
- 0.058853 1 2 tcp 1040 ------- 1 0.0 2.0 2 3
r 0.067467 1 2 tcp 1040 ------- 1 0.0 2.0 1 2
+ 0.067467 2 1 ack 40 ------- 1 2.0 0.0 1 4
- 0.067467 2 1 ack 40 ------- 1 2.0 0.0 1 4
r 0.071627 1 2 tcp 1040 ------- 1 0.0 2.0 2 3
+ 0.071627 2 1 ack 40 ------- 1 2.0 0.0 2 5
- 0.071627 2 1 ack 40 ------- 1 2.0 0.0 2 5
r 0.077573 2 1 ack 40 ------- 1 2.0 0.0 1 4
+ 0.077573 1 0 ack 40 ------- 1 2.0 0.0 1 4
- 0.077573 1 0 ack 40 ------- 1 2.0 0.0 1 4
r 0.081733 2 1 ack 40 ------- 1 2.0 0.0 2 5
+ 0.081733 1 0 ack 40 ------- 1 2.0 0.0 2 5
- 0.081733 1 0 ack 40 ------- 1 2.0 0.0 2 5
r 0.087733 1 0 ack 40 ------- 1 2.0 0.0 1 4
+ 0.087733 0 1 tcp 1040 ------- 1 0.0 2.0 3 6
- 0.087733 0 1 tcp 1040 ------- 1 0.0 2.0 3 6
+ 0.087733 0 1 tcp 1040 ------- 1 0.0 2.0 4 7
r 0.091893 1 0 ack 40 ------- 1 2.0 0.0 2 5
+ 0.091893 0 1 tcp 1040 ------- 1 0.0 2.0 5 8
+ 0.091893 0 1 tcp 1040 ------- 1 0.0 2.0 6 9
- 0.091893 0 1 tcp 1040 ------- 1 0.0 2.0 4 7
- 0.096053 0 1 tcp 1040 ------- 1 0.0 2.0 5 8
- 0.100213 0 1 tcp 1040 ------- 1 0.0 2.0 6 9
r 0.101893 0 1 tcp 1040 ------- 1 0.0 2.0 3 6
+ 0.101893 1 2 tcp 1040 ------- 1 0.0 2.0 3 6
- 0.101893 1 2 tcp 1040 ------- 1 0.0 2.0 3 6
r 0.106053 0 1 tcp 1040 ------- 1 0.0 2.0 4 7
+ 0.106053 1 2 tcp 1040 ------- 1 0.0 2.0 4 7
- 0.106053 1 2 tcp 1040 ------- 1 0.0 2.0 4 7
r 0.110213 0 1 tcp 1040 ------- 1 0.0 2.0 5 8
+ 0.110213 1 2 tcp 1040 ------- 1 0.0 2.0 5 8
- 0.110213 1 2 tcp 1040 ------- 1 0.0 2.0 5 8
r 0.114373 0 1 tcp 1040 ------- 1 0.0 2.0 6 9
+ 0.114373 1 2 tcp 1040 ------- 1 0.0 2.0 6 9
- 0.114373 1 2 tcp 1040 ------- 1 0.0 2.0 6 9
r 0.114667 1 2 tcp 1040 ------- 1 0.0 2.0 3 6
+ 0.114667 2 1 ack 40 ------- 1 2.0 0.0 3 10
- 0.114667 2 1 ack 40 ------- 1 2.0 0.0 3 10
r 0.118827 1 2 tcp 1040 ------- 1 0.0 2.0 4 7
+ 0.118827 2 1 ack 40 ------- 1 2.0 0.0 4 11
- 0.118827 2 1 ack 40 ------- 1 2.0 0.0 4 11
r 0.122987 1 2 tcp 1040 ------- 1 0.0 2.0 5 8
+ 0.122987 2 1 ack 40 ------- 1 2.0 0.0 5 12
- 0.122987 2 1 ack 40 ------- 1 2.0 0.0 5 12
r 0.124773 2 1 ack 40 ------- 1 2.0 0.0 3 10
+ 0.124773 1 0 ack 40 ------- 1 2.0 0.0 3 10
- 0.124773 1 0 ack 40 ------- 1 2.0 0.0 3 10
r 0.127147 1 2 tcp 1040 ------- 1 0.0 2.0 6 9
+ 0.127147 2 1 ack 40 ------- 1 2.0 0.0 6 13
- 0.127147 2 1 ack 40 ------- 1 2.0 0.0 6 13
r 0.128933 2 1 ack 40 ------- 1 2.0 0.0 4 11
+ 0.128933 1 0 ack 40 ------- 1 2.0 0.0 4 11
- 0.128933 1 0 ack 40 ------- 1 2.0 0.0 4 11
r 0.133093 2 1 ack 40 ------- 1 2.0 0.0 5 12
+ 0.133093 1 0 ack 40 ------- 1 2.0 0.0 5 12
- 0.133093 1 0 ack 40 ------- 1 2.0 0.0 5 12
r 0.134933 1 0 ack 40 ------- 1 2.0 0.0 3 10
+ 0.134933 0 1 tcp 1040 ------- 1 0.0 2.0 7 14
- 0.134933 0 1 tcp 1040 ------- 1 0.0 2.0 7 14
+ 0.134933 0 1 tcp 1040 ------- 1 0.0 2.0 8 15
r 0.137253 2 1 ack 40 ------- 1 2.0 0.0 6 13
+ 0.137253 1 0 ack 40 ------- 1 2.0 0.0 6 13
- 0.137253 1 0 ack 40 ------- 1 2.0 0.0 6 13
- 0.139093 0 1 tcp 1040 ------- 1 0.0 2.0 8 15
r 0.139093 1 0 ack 40 ------- 1 2.0 0.0 4 11
+ 0.139093 0 1 tcp 1040 ------- 1 0.0 2.0 9 16
+ 0.139093 0 1 tcp 1040 ------- 1 0.0 2.0 10 17
- 0.143253 0 1 tcp 1040 ------- 1 0.0 2.0 9 16
r 0.143253 1 0 ack 40 ------- 1 2.0 0.0 5 12
+ 0.143253 0 1 tcp 1040 ------- 1 0.0 2.0 11 18
+ 0.143253 0 1 tcp 1040 ------- 1 0.0 2.0 12 19
- 0.147413 0 1 tcp 1040 ------- 1 0.0 2.0 10 17
r 0.147413 1 0 ack 40 ------- 1 2.0 0.0 6 13
+ 0.147413 0 1 tcp 1040 ------- 1 0.0 2.0 13 20
+ 0.147413 0 1 tcp 1040 ------- 1 0.0 2.0 14 21
r 0.149093 0 1 tcp 1040 ------- 1 0.0 2.0 7 14
+ 0.149093 1 2 tcp 1040 ------- 1 0.0 2.0 7 14
- 0.149093 1 2 tcp 1040 ------- 1 0.0 2.0 7 14
- 0.151573 0 1 tcp 1040 ------- 1 0.0 2.0 11 18
r 0.153253 0 1 tcp 1040 ------- 1 0.0 2.0 8 15
+ 0.153253 1 2 tcp 1040 ------- 1 0.0 2.0 8 15
- 0.153253 1 2 tcp 1040 ------- 1 0.0 2.0 8 15
- 0.155733 0 1 tcp 1040 ------- 1 0.0 2.0 12 19
r 0.157413 0 1 tcp 1040 ------- 1 0.0 2.0 9 16
+ 0.157413 1 2 tcp 1040 ------- 1 0.0 2.0 9 16
- 0.157413 1 2 tcp 1040 ------- 1 0.0 2.0 9 16
- 0.159893 0 1 tcp 1040 ------- 1 0.0 2.0 13 20
r 0.161573 0 1 tcp 1040 ------- 1 0.0 2.0 10 17
+ 0.161573 1 2 tcp 1040 ------- 1 0.0 2.0 10 17
- 0.161573 1 2 tcp 1040 ------- 1 0.0 2.0 10 17
r 0.161867 1 2 tcp 1040 ------- 1 0.0 2.0 7 14
+ 0.161867 2 1 ack 40 ------- 1 2.0 0.0 7 22
- 0.161867 2 1 ack 40 ------- 1 2.0 0.0 7 22
- 0.164053 0 1 tcp 1040 ------- 1 0.0 2.0 14 21
r 0.165733 0 1 tcp 1040 ------- 1 0.0 2.0 11 18
+ 0.165733 1 2 tcp 1040 ------- 1 0.0 2.0 11 18
- 0.165733 1 2 tcp 1040 ------- 1 0.0 2.0 11 18
r 0.166027 1 2 tcp 1040 ------- 1 0.0 2.0 8 15
+ 0.166027 2 1 ack 40 ------- 1 2.0 0.0 8 23
- 0.166027 2 1 ack 40 ------- 1 2.0 0.0 8 23
r 0.169893 0 1 tcp 1040 ------- 1 0.0 2.0 12 19
+ 0.169893 1 2 tcp 1040 ------- 1 0.0 2.0 12 19
- 0.169893 1 2 tcp 1040 ------- 1 0.0 2.0 12 19
r 0.170187 1 2 tcp 1040 ------- 1 0.0 2.0 9 16
+ 0.170187 2 1 ack 40 ------- 1 2.0 0.0 9 24
- 0.170187 2 1 ack 40 ------- 1 2.0 0.0 9 24
r 0.171973 2 1 ack 40 ------- 1 2.0 0.0 7 22
+ 0.171973 1 0 ack 40 ------- 1 2.0 0.0 7 22
- 0.171973 1 0 ack 40 ------- 1 2.0 0.0 7 22
r 0.174053 0 1 tcp 1040 ------- 1 0.0 2.0 13 20
+ 0.174053 1 2 tcp 1040 ------- 1 0.0 2.0 13 20
- 0.174053 1 2 tcp 1040 ------- 1 0.0 2.0 13 20
r 0.174347 1 2 tcp 1040 ------- 1 0.0 2.0 10 17
+ 0.174347 2 1 ack 40 ------- 1 2.0 0.0 10 25
- 0.174347 2 1 ack 40 ------- 1 2.0 0.0 10 25
r 0.176133 2 1 ack 40 ------- 1 2.0 0.0 8 23
+ 0.176133 1 0 ack 40 ------- 1 2.0 0.0 8 23
- 0.176133 1 0 ack 40 ------- 1 2.0 0.0 8 23
r 0.178213 0 1 tcp 1040 ------- 1 0.0 2.0 14 21
+ 0.178213 1 2 tcp 1040 ------- 1 0.0 2.0 14 21
- 0.178213 1 2 tcp 1040 ------- 1 0.0 2.0 14 21
r 0.178507 1 2 tcp 1040 ------- 1 0.0 2.0 11 18
+ 0.178507 2 1 ack 40 ------- 1 2.0 0.0 11 26
- 0.178507 2 1 ack 40 ------- 1 2.0 0.0 11 26
r 0.180293 2 1 ack 40 ------- 1 2.0 0.0 9 24
+ 0.180293 1 0 ack 40 ------- 1 2.0 0.0 9 24
- 0.180293 1 0 ack 40 ------- 1 2.0 0.0 9 24
r 0.182133 1 0 ack 40 ------- 1 2.0 0.0 7 22
+ 0.182133 0 1 tcp 1040 ------- 1 0.0 2.0 15 27
- 0.182133 0 1 tcp 1040 ------- 1 0.0 2.0 15 27
+ 0.182133 0 1 tcp 1040 ------- 1 0.0 2.0 16 28
r 0.182667 1 2 tcp 1040 ------- 1 0.0 2.0 12 19
+ 0.182667 2 1 ack 40 ------- 1 2.0 0.0 12 29
- 0.182667 2 1 ack 40 ------- 1 2.0 0.0 12 29
r 0.184453 2 1 ack 40 ------- 1 2.0 0.0 10 25
+ 0.184453 1 0 ack 40 ------- 1 2.0 0.0 10 25
- 0.184453 1 0 ack 40 ------- 1 2.0 0.0 10 25
r 0.186293 1 0 ack 40 ------- 1 2.0 0.0 8 23
+ 0.186293 0 1 tcp 1040 ------- 1 0.0 2.0 17 30
+ 0.186293 0 1 tcp 1040 ------- 1 0.0 2.0 18 31
- 0.186293 0 1 tcp 1040 ------- 1 0.0 2.0 16 28
r 0.186827 1 2 tcp 1040 ------- 1 0.0 2.0 13 20
+ 0.186827 2 1 ack 40 ------- 1 2.0 0.0 13 32
- 0.186827 2 1 ack 40 ------- 1 2.0 0.0 13 32
r 0.188613 2 1 ack 40 ------- 1 2.0 0.0 11 26
+ 0.188613 1 0 ack 40 ------- 1 2.0 0.0 11 26
- 0.188613 1 0 ack 40 ------- 1 2.0 0.0 11 26
r 0.190453 1 0 ack 40 ------- 1 2.0 0.0 9 24
+ 0.190453 0 1 tcp 1040 ------- 1 0.0 2.0 19 33
+ 0.190453 0 1 tcp 1040 ------- 1 0.0 2.0 20 34
- 0.190453 0 1 tcp 1040 ------- 1 0.0 2.0 17 30
r 0.190987 1 2 tcp 1040 ------- 1 0.0 2.0 14 21
+ 0.190987 2 1 ack 40 ------- 1 2.0 0.0 14 35
- 0.190987 2 1 ack 40 ------- 1 2.0 0.0 14 35
r 0.192773 2 1 ack 40 ------- 1 2.0 0.0 12 29
+ 0.192773 1 0 ack 40 ------- 1 2.0 0.0 12 29
- 0.192773 1 0 ack 40 ------- 1 2.0 0.0 12 29
r 0.194613 1 0 ack 40 ------- 1 2.0 0.0 10 25
+ 0.194613 0 1 tcp 1040 ------- 1 0.0 2.0 21 36
+ 0.194613 0 1 tcp 1040 ------- 1 0.0 2.0 22 37
- 0.194613 0 1 tcp 1040 ------- 1 0.0 2.0 18 31
r 0.196293 0 1 tcp 1040 ------- 1 0.0 2.0 15 27
+ 0.196293 1 2 tcp 1040 ------- 1 0.0 2.0 15 27
- 0.196293 1 2 tcp 1040 ------- 1 0.0 2.0 15 27
r 0.196933 2 1 ack 40 ------- 1 2.0 0.0 13 32
+ 0.196933 1 0 ack 40 ------- 1 2.0 0.0 13 32
- 0.196933 1 0 ack 40 ------- 1 2.0 0.0 13 32
r 0.198773 1 0 ack 40 ------- 1 2.0 0.0 11 26
+ 0.198773 0 1 tcp 1040 ------- 1 0.0 2.0 23 38
+ 0.198773 0 1 tcp 1040 ------- 1 0.0 2.0 24 39
- 0.198773 0 1 tcp 1040 ------- 1 0.0 2.0 19 33
r 0.200453 0 1 tcp 1040 ------- 1 0.0 2.0 16 28
+ 0.200453 1 2 tcp 1040 ------- 1 0.0 2.0 16 28
- 0.200453 1 2 tcp 1040 ------- 1 0.0 2.0 16 28
r 0.201093 2 1 ack 40 ------- 1 2.0 0.0 14 35
+ 0.201093 1 0 ack 40 ------- 1 2.0 0.0 14 35
- 0.201093 1 0 ack 40 ------- 1 2.0 0.0 14 35
r 0.202933 1 0 ack 40 ------- 1 2.0 0.0 12 29
+ 0.202933 0 1 tcp 1040 ------- 1 0.0 2.0 25 40
+ 0.202933 0 1 tcp 1040 ------- 1 0.0 2.0 26 41
- 0.202933 0 1 tcp 1040 ------- 1 0.0 2.0 20 34
r 0.204613 0 1 tcp 1040 ------- 1 0.0 2.0 17 30
+ 0.204613 1 2 tcp 1040 ------- 1 0.0 2.0 17 30
- 0.204613 1 2 tcp 1040 ------- 1 0.0 2.0 17 30
r 0.207093 1 0 ack 40 ------- 1 2.0 0.0 13 32
+ 0.207093 0 1 tcp 1040 ------- 1 0.0 2.0 27 42
+ 0.207093 0 1 tcp 1040 ------- 1 0.0 2.0 28 43
- 0.207093 0 1 tcp 1040 ------- 1 0.0 2.0 21 36
r 0.208773 0 1 tcp 1040 ------- 1 0.0 2.0 18 31
+ 0.208773 1 2 tcp 1040 ------- 1 0.0 2.0 18 31
- 0.208773 1 2 tcp 1040 ------- 1 0.0 2.0 18 31
r 0.209067 1 2 tcp 1040 ------- 1 0.0 2.0 15 27
+ 0.209067 2 1 ack 40 ------- 1 2.0 0.0 15 44
- 0.209067 2 1 ack 40 ------- 1 2.0 0.0 15 44
r 0.211253 1 0 ack 40 ------- 1 2.0 0.0 14 35
+ 0.211253 0 1 tcp 1040 ------- 1 0.0 2.0 29 45
+ 0.211253 0 1 tcp 1040 ------- 1 0.0 2.0 30 46
- 0.211253 0 1 tcp 1040 ------- 1 0.0 2.0 22 37
r 0.212933 0 1 tcp 1040 ------- 1 0.0 2.0 19 33
+ 0.212933 1 2 tcp 1040 ------- 1 0.0 2.0 19 33
- 0.212933 1 2 tcp 1040 ------- 1 0.0 2.0 19 33
r 0.213227 1 2 tcp 1040 ------- 1 0.0 2.0 16 28
+ 0.213227 2 1 ack 40 ------- 1 2.0 0.0 16 47
- 0.213227 2 1 ack 40 ------- 1 2.0 0.0 16 47
- 0.215413 0 1 tcp 1040 ------- 1 0.0 2.0 23 38
r 0.217093 0 1 tcp 1040 ------- 1 0.0 2.0 20 34
+ 0.217093 1 2 tcp 1040 ------- 1 0.0 2.0 20 34
- 0.217093 1 2 tcp 1040 ------- 1 0.0 2.0 20 34
r 0.217387 1 2 tcp 1040 ------- 1 0.0 2.0 17 30
+ 0.217387 2 1 ack 40 ------- 1 2.0 0.0 17 48
- 0.217387 2 1 ack 40 ------- 1 2.0 0.0 17 48
r 0.219173 2 1 ack 40 ------- 1 2.0 0.0 15 44
+ 0.219173 1 0 ack 40 ------- 1 2.0 0.0 15 44
- 0.219173 1 0 ack 40 ------- 1 2.0 0.0 15 44
- 0.219573 0 1 tcp 1040 ------- 1 0.0 2.0 24 39
r 0.221253 0 1 tcp 1040 ------- 1 0.0 2.0 21 36
+ 0.221253 1 2 tcp 1040 ------- 1 0.0 2.0 21 36
- 0.221253 1 2 tcp 1040 ------- 1 0.0 2.0 21 36
r 0.221547 1 2 tcp 1040 ------- 1 0.0 2.0 18 31
+ 0.221547 2 1 ack 40 ------- 1 2.0 0.0 18 49
- 0.221547 2 1 ack 40 ------- 1 2.0 0.0 18 49
r 0.223333 2 1 ack 40 ------- 1 2.0 0.0 16 47
+ 0.223333 1 0 ack 40 ------- 1 2.0 0.0 16 47
- 0.223333 1 0 ack 40 ------- 1 2.0 0.0 16 47
- 0.223733 0 1 tcp 1040 ------- 1 0.0 2.0 25 40
r 0.225413 0 1 tcp 1040 ------- 1 0.0 2.0 22 37
+ 0.225413 1 2 tcp 1040 ------- 1 0.0 2.0 22 37
- 0.225413 1 2 tcp 1040 ------- 1 0.0 2.0 22 37
r 0.225707 1 2 tcp 1040 ------- 1 0.0 2.0 19 33
+ 0.225707 2 1 ack 40 ------- 1 2.0 0.0 19 50
- 0.225707 2 1 ack 40 ------- 1 2.0 0.0 19 50
r 0.227493 2 1 ack 40 ------- 1 2.0 0.0 17 48
+ 0.227493 1 0 ack 40 ------- 1 2.0 0.0 17 48
- 0.227493 1 0 ack 40 ------- 1 2.0 0.0 17 48
- 0.227893 0 1 tcp 1040 ------- 1 0.0 2.0 26 41
r 0.229333 1 0 ack 40 ------- 1 2.0 0.0 15 44
+ 0.229333 0 1 tcp 1040 ------- 1 0.0 2.0 31 51
+ 0.229333 0 1 tcp 1040 ------- 1 0.0 2.0 32 52
r 0.229573 0 1 tcp 1040 ------- 1 0.0 2.0 23 38
+ 0.229573 1 2 tcp 1040 ------- 1 0.0 2.0 23 38
- 0.229573 1 2 tcp 1040 ------- 1 0.0 2.0 23 38
r 0.229867 1 2 tcp 1040 ------- 1 0.0 2.0 20 34
+ 0.229867 2 1 ack 40 ------- 1 2.0 0.0 20 53
- 0.229867 2 1 ack 40 ------- 1 2.0 0.0 20 53
r 0.231653 2 1 ack 40 ------- 1 2.0 0.0 18 49
+ 0.231653 1 0 ack 40 ------- 1 2.0 0.0 18 49
- 0.231653 1 0 ack 40 ------- 1 2.0 0.0 18 49
- 0.232053 0 1 tcp 1040 ------- 1 0.0 2.0 27 42
r 0.233493 1 0 ack 40 ------- 1 2.0 0.0 16 47
+ 0.233493 0 1 tcp 1040 ------- 1 0.0 2.0 33 54
+ 0.233493 0 1 tcp 1040 ------- 1 0.0 2.0 34 55
r 0.233733 0 1 tcp 1040 ------- 1 0.0 2.0 24 39
+ 0.233733 1 2 tcp 1040 ------- 1 0.0 2.0 24 39
- 0.233733 1 2 tcp 1040 ------- 1 0.0 2.0 24 39
r 0.234027 1 2 tcp 1040 ------- 1 0.0 2.0 21 36
+ 0.234027 2 1 ack 40 ------- 1 2.0 0.0 21 56
- 0.234027 2 1 ack 40 ------- 1 2.0 0.0 21 56
r 0.235813 2 1 ack 40 ------- 1 2.0 0.0 19 50
+ 0.235813 1 0 ack 40 ------- 1 2.0 0.0 19 50
- 0.235813 1 0 ack 40 ------- 1 2.0 0.0 19 50
- 0.236213 0 1 tcp 1040 ------- 1 0.0 2.0 28 43
r 0.237653 1 0 ack 40 ------- 1 2.0 0.0 17 48
+ 0.237653 0 1 tcp 1040 ------- 1 0.0 2.0 35 57
+ 0.237653 0 1 tcp 1040 ------- 1 0.0 2.0 36 58
r 0.237893 0 1 tcp 1040 ------- 1 0.0 2.0 25 40
+ 0.237893 1 2 tcp 1040 ------- 1 0.0 2.0 25 40
- 0.237893 1 2 tcp 1040 ------- 1 0.0 2.0 25 40
r 0.238187 1 2 tcp 1040 ------- 1 0.0 2.0 22 37
+ 0.238187 2 1 ack 40 ------- 1 2.0 0.0 22 59
- 0.238187 2 1 ack 40 ------- 1 2.0 0.0 22 59
r 0.239973 2 1 ack 40 ------- 1 2.0 0.0 20 53
+ 0.239973 1 0 ack 40 ------- 1 2.0 0.0 20 53
- 0.239973 1 0 ack 40 ------- 1 2.0 0.0 20 53
- 0.240373 0 1 tcp 1040 ------- 1 0.0 2.0 29 45
r 0.241813 1 0 ack 40 ------- 1 2.0 0.0 18 49
+ 0.241813 0 1 tcp 1040 ------- 1 0.0 2.0 37 60
+ 0.241813 0 1 tcp 1040 ------- 1 0.0 2.0 38 61
r 0.242053 0 1 tcp 1040 ------- 1 0.0 2.0 26 41
+ 0.242053 1 2 tcp 1040 ------- 1 0.0 2.0 26 41
- 0.242053 1 2 tcp 1040 ------- 1 0.0 2.0 26 41
r 0.242347 1 2 tcp 1040 ------- 1 0.0 2.0 23 38
+ 0.242347 2 1 ack 40 ------- 1 2.0 0.0 23 62
- 0.242347 2 1 ack 40 ------- 1 2.0 0.0 23 62
r 0.244133 2 1 ack 40 ------- 1 2.0 0.0 21 56
+ 0.244133 1 0 ack 40 ------- 1 2.0 0.0 21 56
- 0.244133 1 0 ack 40 ------- 1 2.0 0.0 21 56
- 0.244533 0 1 tcp 1040 ------- 1 0.0 2.0 30 46
r 0.245973 1 0 ack 40 ------- 1 2.0 0.0 19 50
+ 0.245973 0 1 tcp 1040 ------- 1 0.0 2.0 39 63
r 0.246213 0 1 tcp 1040 ------- 1 0.0 2.0 27 42
+ 0.246213 1 2 tcp 1040 ------- 1 0.0 2.0 27 42
- 0.246213 1 2 tcp 1040 ------- 1 0.0 2.0 27 42
r 0.246507 1 2 tcp 1040 ------- 1 0.0 2.0 24 39
+ 0.246507 2 1 ack 40 ------- 1 2.0 0.0 24 64
- 0.246507 2 1 ack 40 ------- 1 2.0 0.0 24 64
r 0.248293 2 1 ack 40 ------- 1 2.0 0.0 22 59
+ 0.248293 1 0 ack 40 ------- 1 2.0 0.0 22 59
- 0.248293 1 0 ack 40 ------- 1 2.0 0.0 22 59
- 0.248693 0 1 tcp 1040 ------- 1 0.0 2.0 31 51
r 0.250133 1 0 ack 40 ------- 1 2.0 0.0 20 53
+ 0.250133 0 1 tcp 1040 ------- 1 0.0 2.0 40 65
r 0.250373 0 1 tcp 1040 ------- 1 0.0 2.0 28 43
+ 0.250373 1 2 tcp 1040 ------- 1 0.0 2.0 28 43
- 0.250373 1 2 tcp 1040 ------- 1 0.0 2.0 28 43
r 0.250667 1 2 tcp 1040 ------- 1 0.0 2.0 25 40
+ 0.250667 2 1 ack 40 ------- 1 2.0 0.0 25 66
- 0.250667 2 1 ack 40 ------- 1 2.0 0.0 25 66
r 0.252453 2 1 ack 40 ------- 1 2.0 0.0 23 62
+ 0.252453 1 0 ack 40 ------- 1 2.0 0.0 23 62
- 0.252453 1 0 ack 40 ------- 1 2.0 0.0 23 62
- 0.252853 0 1 tcp 1040 ------- 1 0.0 2.0 32 52
r 0.254293 1 0 ack 40 ------- 1 2.0 0.0 21 56
+ 0.254293 0 1 tcp 1040 ------- 1 0.0 2.0 41 67
r 0.254533 0 1 tcp 1040 ------- 1 0.0 2.0 29 45
+ 0.254533 1 2 tcp 1040 ------- 1 0.0 2.0 29 45
- 0.254533 1 2 tcp 1040 ------- 1 0.0 2.0 29 45
r 0.254827 1 2 tcp 1040 ------- 1 0.0 2.0 26 41
+ 0.254827 2 1 ack 40 ------- 1 2.0 0.0 26 68
- 0.254827 2 1 ack 40 ------- 1 2.0 0.0 26 68
r 0.256613 2 1 ack 40 ------- 1 2.0 0.0 24 64
+ 0.256613 1 0 ack 40 ------- 1 2.0 0.0 24 64
- 0.256613 1 0 ack 40 ------- 1 2.0 0.0 24 64
- 0.257013 0 1 tcp 1040 ------- 1 0.0 2.0 33 54
r 0.258453 1 0 ack 40 ------- 1 2.0 0.0 22 59
+ 0.258453 0 1 tcp 1040 ------- 1 0.0 2.0 42 69
r 0.258693 0 1 tcp 1040 ------- 1 0.0 2.0 30 46
+ 0.258693 1 2 tcp 1040 ------- 1 0.0 2.0 30 46
- 0.258693 1 2 tcp 1040 ------- 1 0.0 2.0 30 46
r 0.258987 1 2 tcp 1040 ------- 1 0.0 2.0 27 42
+ 0.258987 2 1 ack 40 ------- 1 2.0 0.0 27 70
- 0.258987 2 1 ack 40 ------- 1 2.0 0.0 27 70
r 0.260773 2 1 ack 40 ------- 1 2.0 0.0 25 66
+ 0.260773 1 0 ack 40 ------- 1 2.0 0.0 25 66
- 0.260773 1 0 ack 40 ------- 1 2.0 0.0 25 66
- 0.261173 0 1 tcp 1040 ------- 1 0.0 2.0 34 55
r 0.262613 1 0 ack 40 ------- 1 2.0 0.0 23 62
+ 0.262613 0 1 tcp 1040 ------- 1 0.0 2.0 43 71
r 0.262853 0 1 tcp 1040 ------- 1 0.0 2.0 31 51
+ 0.262853 1 2 tcp 1040 ------- 1 0.0 2.0 31 51
- 0.262853 1 2 tcp 1040 ------- 1 0.0 2.0 31 51
r 0.263147 1 2 tcp 1040 ------- 1 0.0 2.0 28 43
+ 0.263147 2 1 ack 40 ------- 1 2.0 0.0 28 72
- 0.263147 2 1 ack 40 ------- 1 2.0 0.0 28 72
r 0.264933 2 1 ack 40 ------- 1 2.0 0.0 26 68
+ 0.264933 1 0 ack 40 ------- 1 2.0 0.0 26 68
- 0.264933 1 0 ack 40 ------- 1 2.0 0.0 26 68
- 0.265333 0 1 tcp 1040 ------- 1 0.0 2.0 35 57
r 0.266773 1 0 ack 40 ------- 1 2.0 0.0 24 64
+ 0.266773 0 1 tcp 1040 ------- 1 0.0 2.0 44 73
r 0.267013 0 1 tcp 1040 ------- 1 0.0 2.0 32 52
+ 0.267013 1 2 tcp 1040 ------- 1 0.0 2.0 32 52
- 0.267013 1 2 tcp 1040 ------- 1 0.0 2.0 32 52
r 0.267307 1 2 tcp 1040 ------- 1 0.0 2.0 29 45
+ 0.267307 2 1 ack 40 ------- 1 2.0 0.0 29 74
- 0.267307 2 1 ack 40 ------- 1 2.0 0.0 29 74
r 0.269093 2 1 ack 40 ------- 1 2.0 0.0 27 70
+ 0.269093 1 0 ack 40 ------- 1 2.0 0.0 27 70
- 0.269093 1 0 ack 40 ------- 1 2.0 0.0 27 70
- 0.269493 0 1 tcp 1040 ------- 1 0.0 2.0 36 58
r 0.270933 1 0 ack 40 ------- 1 2.0 0.0 25 66
+ 0.270933 0 1 tcp 1040 ------- 1 0.0 2.0 45 75
r 0.271173 0 1 tcp 1040 ------- 1 0.0 2.0 33 54
+ 0.271173 1 2 tcp 1040 ------- 1 0.0 2.0 33 54
- 0.271173 1 2 tcp 1040 ------- 1 0.0 2.0 33 54
r 0.271467 1 2 tcp 1040 ------- 1 0.0 2.0 30 46
+ 0.271467 2 1 ack 40 ------- 1 2.0 0.0 30 76
- 0.271467 2 1 ack 40 ------- 1 2.0 0.0 30 76
r 0.273253 2 1 ack 40 ------- 1 2.0 0.0 28 72
+ 0.273253 1 0 ack 40 ------- 1 2.0 0.0 28 72
- 0.273253 1 0 ack 40 ------- 1 2.0 0.0 28 72
- 0.273653 0 1 tcp 1040 ------- 1 0.0 2.0 37 60
r 0.275093 1 0 ack 40 ------- 1 2.0 0.0 26 68
+ 0.275093 0 1 tcp 1040 ------- 1 0.0 2.0 46 77
r 0.275333 0 1 tcp 1040 ------- 1 0.0 2.0 34 55
+ 0.275333 1 2 tcp 1040 ------- 1 0.0 2.0 34 55
- 0.275333 1 2 tcp 1040 ------- 1 0.0 2.0 34 55
r 0.275627 1 2 tcp 1040 ------- 1 0.0 2.0 31 51
+ 0.275627 2 1 ack 40 ------- 1 2.0 0.0 31 78
- 0.275627 2 1 ack 40 ------- 1 2.0 0.0 31 78
r 0.277413 2 1 ack 40 ------- 1 2.0 0.0 29 74
+ 0.277413 1 0 ack 40 ------- 1 2.0 0.0 29 74
- 0.277413 1 0 ack 40 ------- 1 2.0 0.0 29 74
- 0.277813 0 1 tcp 1040 ------- 1 0.0 2.0 38 61
r 0.279253 1 0 ack 40 ------- 1 2.0 0.0 27 70
+ 0.279253 0 1 tcp 1040 ------- 1 0.0 2.0 47 79
r 0.279493 0 1 tcp 1040 ------- 1 0.0 2.0 35 57
+ 0.279493 1 2 tcp 1040 ------- 1 0.0 2.0 35 57
- 0.279493 1 2 tcp 1040 ------- 1 0.0 2.0 35 57
r 0.279787 1 2 tcp 1040 ------- 1 0.0 2.0 32 52
+ 0.279787 2 1 ack 40 ------- 1 2.0 0.0 32 80
- 0.279787 2 1 ack 40 ------- 1 2.0 0.0 32 80
r 0.281573 2 1 ack 40 ------- 1 2.0 0.0 30 76
+ 0.281573 1 0 ack 40 ------- 1 2.0 0.0 30 76
- 0.281573 1 0 ack 40 ------- 1 2.0 0.0 30 76
- 0.281973 0 1 tcp 1040 ------- 1 0.0 2.0 39 63
r 0.283413 1 0 ack 40 ------- 1 2.0 0.0 28 72
+ 0.283413 0 1 tcp 1040 ------- 1 0.0 2.0 48 81
r 0.283653 0 1 tcp 1040 ------- 1 0.0 2.0 36 58
+ 0.283653 1 2 tcp 1040 ------- 1 0.0 2.0 36 58
- 0.283653 1 2 tcp 1040 ------- 1 0.0 2.0 36 58
r 0.283947 1 2 tcp 1040 ------- 1 0.0 2.0 33 54
+ 0.283947 2 1 ack 40 ------- 1 2.0 0.0 33 82
- 0.283947 2 1 ack 40 ------- 1 2.0 0.0 33 82
r 0.285733 2 1 ack 40 ------- 1 2.0 0.0 31 78
+ 0.285733 1 0 ack 40 ------- 1 2.0 0.0 31 78
- 0.285733 1 0 ack 40 ------- 1 2.0 0.0 31 78
- 0.286133 0 1 tcp 1040 ------- 1 0.0 2.0 40 65
r 0.287573 1 0 ack 40 ------- 1 2.0 0.0 29 74
+ 0.287573 0 1 tcp 1040 ------- 1 0.0 2.0 49 83
r 0.287813 0 1 tcp 1040 ------- 1 0.0 2.0 37 60
+ 0.287813 1 2 tcp 1040 ------- 1 0.0 2.0 37 60
- 0.287813 1 2 tcp 1040 ------- 1 0.0 2.0 37 60
r 0.288107 1 2 tcp 1040 ------- 1 0.0 2.0 34 55
+ 0.288107 2 1 ack 40 ------- 1 2.0 0.0 34 84
- 0.288107 2 1 ack 40 ------- 1 2.0 0.0 34 84
r 0.289893 2 1 ack 40 ------- 1 2.0 0.0 32 80
+ 0.289893 1 0 ack 40 ------- 1 2.0 0.0 32 80
- 0.289893 1 0 ack 40 ------- 1 2.0 0.0 32 80
- 0.290293 0 1 tcp 1040 ------- 1 0.0 2.0 41 67
r 0.291733 1 0 ack 40 ------- 1 2.0 0.0 30 76
+ 0.291733 0 1 tcp 1040 ------- 1 0.0 2.0 50 85
r 0.291973 0 1 tcp 1040 ------- 1 0.0 2.0 38 61
+ 0.291973 1 2 tcp 1040 ------- 1 0.0 2.0 38 61
- 0.291973 1 2 tcp 1040 ------- 1 0.0 2.0 38 61
r 0.292267 1 2 tcp 1040 ------- 1 0.0 2.0 35 57
+ 0.292267 2 1 ack 40 ------- 1 2.0 0.0 35 86
- 0.292267 2 1 ack 40 ------- 1 2.0 0.0 35 86
r 0.294053 2 1 ack 40 ------- 1 2.0 0.0 33 82
+ 0.294053 1 0 ack 40 ------- 1 2.0 0.0 33 82
- 0.294053 1 0 ack 40 ------- 1 2.0 0.0 33 82
- 0.294453 0 1 tcp 1040 ------- 1 0.0 2.0 42 69
r 0.295893 1 0 ack 40 ------- 1 2.0 0.0 31 78
+ 0.295893 0 1 tcp 1040 ------- 1 0.0 2.0 51 87
r 0.296133 0 1 tcp 1040 ------- 1 0.0 2.0 39 63
+ 0.296133 1 2 tcp 1040 ------- 1 0.0 2.0 39 63
- 0.296133 1 2 tcp 1040 ------- 1 0.0 2.0 39 63
r 0.296427 1 2 tcp 1040 ------- 1 0.0 2.0 36 58
+ 0.296427 2 1 ack 40 ------- 1 2.0 0.0 36 88
- 0.296427 2 1 ack 40 ------- 1 2.0 0.0 36 88
r 0.298213 2 1 ack 40 ------- 1 2.0 0.0 34 84
+ 0.298213 1 0 ack 40 ------- 1 2.0 0.0 34 84
- 0.298213 1 0 ack 40 ------- 1 2.0 0.0 34 84
- 0.298613 0 1 tcp 1040 ------- 1 0.0 2.0 43 71
r 0.300053 1 0 ack 40 ------- 1 2.0 0.0 32 80
+ 0.300053 0 1 tcp 1040 ------- 1 0.0 2.0 52 89
r 0.300293 0 1 tcp 1040 ------- 1 0.0 2.0 40 65
+ 0.300293 1 2 tcp 1040 ------- 1 0.0 2.0 40 65
- 0.300293 1 2 tcp 1040 ------- 1 0.0 2.0 40 65
r 0.300587 1 2 tcp 1040 ------- 1 0.0 2.0 37 60
+ 0.300587 2 1 ack 40 ------- 1 2.0 0.0 37 90
- 0.300587 2 1 ack 40 ------- 1 2.0 0.0 37 90
r 0.302373 2 1 ack 40 ------- 1 2.0 0.0 35 86
+ 0.302373 1 0 ack 40 ------- 1 2.0 0.0 35 86
- 0.302373 1 0 ack 40 ------- 1 2.0 0.0 35 86
- 0.302773 0 1 tcp 1040 ------- 1 0.0 2.0 44 73
r 0.304213 1 0 ack 40 ------- 1 2.0 0.0 33 82
+ 0.304213 0 1 tcp 1040 ------- 1 0.0 2.0 53 91
r 0.304453 0 1 tcp 1040 ------- 1 0.0 2.0 41 67
+ 0.304453 1 2 tcp 1040 ------- 1 0.0 2.0 41 67
- 0.304453 1 2 tcp 1040 ------- 1 0.0 2.0 41 67
r 0.304747 1 2 tcp 1040 ------- 1 0.0 2.0 38 61
+ 0.304747 2 1 ack 40 ------- 1 2.0 0.0 38 92
- 0.304747 2 1 ack 40 ------- 1 2.0 0.0 38 92
r 0.306533 2 1 ack 40 ------- 1 2.0 0.0 36 88
+ 0.306533 1 0 ack 40 ------- 1 2.0 0.0 36 88
- 0.306533 1 0 ack 40 ------- 1 2.0 0.0 36 88
- 0.306933 0 1 tcp 1040 ------- 1 0.0 2.0 45 75
r 0.308373 1 0 ack 40 ------- 1 2.0 0.0 34 84
+ 0.308373 0 1 tcp 1040 ------- 1 0.0 2.0 54 93
r 0.308613 0 1 tcp 1040 ------- 1 0.0 2.0 42 69
+ 0.308613 1 2 tcp 1040 ------- 1 0.0 2.0 42 69
- 0.308613 1 2 tcp 1040 ------- 1 0.0 2.0 42 69
r 0.308907 1 2 tcp 1040 ------- 1 0.0 2.0 39 63
+ 0.308907 2 1 ack 40 ------- 1 2.0 0.0 39 94
- 0.308907 2 1 ack 40 ------- 1 2.0 0.0 39 94
r 0.310693 2 1 ack 40 ------- 1 2.0 0.0 37 90
+ 0.310693 1 0 ack 40 ------- 1 2.0 0.0 37 90
- 0.310693 1 0 ack 40 ------- 1 2.0 0.0 37 90
- 0.311093 0 1 tcp 1040 ------- 1 0.0 2.0 46 77
r 0.312533 1 0 ack 40 ------- 1 2.0 0.0 35 86
+ 0.312533 0 1 tcp 1040 ------- 1 0.0 2.0 55 95
r 0.312773 0 1 tcp 1040 ------- 1 0.0 2.0 43 71
+ 0.312773 1 2 tcp 1040 ------- 1 0.0 2.0 43 71
- 0.312773 1 2 tcp 1040 ------- 1 0.0 2.0 43 71
r 0.313067 1 2 tcp 1040 ------- 1 0.0 2.0 40 65
+ 0.313067 2 1 ack 40 ------- 1 2.0 0.0 40 96
- 0.313067 2 1 ack 40 ------- 1 2.0 0.0 40 96
r 0.314853 2 1 ack 40 ------- 1 2.0 0.0 38 92
+ 0.314853 1 0 ack 40 ------- 1 2.0 0.0 38 92
- 0.314853 1 0 ack 40 ------- 1 2.0 0.0 38 92
- 0.315253 0 1 tcp 1040 ------- 1 0.0 2.0 47 79
r 0.316693 1 0 ack 40 ------- 1 2.0 0.0 36 88
+ 0.316693 0 1 tcp 1040 ------- 1 0.0 2.0 56 97
r 0.316933 0 1 tcp 1040 ------- 1 0.0 2.0 44 73
+ 0.316933 1 2 tcp 1040 ------- 1 0.0 2.0 44 73
- 0.316933 1 2 tcp 1040 ------- 1 0.0 2.0 44 73
r 0.317227 1 2 tcp 1040 ------- 1 0.0 2.0 41 67
+ 0.317227 2 1 ack 40 ------- 1 2.0 0.0 41 98
- 0.317227 2 1 ack 40 ------- 1 2.0 0.0 41 98
r 0.319013 2 1 ack 40 ------- 1 2.0 0.0 39 94
+ 0.319013 1 0 ack 40 ------- 1 2.0 0.0 39 94
- 0.319013 1 0 ack 40 ------- 1 2.0 0.0 39 94
- 0.319413 0 1 tcp 1040 ------- 1 0.0 2.0 48 81
r 0.320853 1 0 ack 40 ------- 1 2.0 0.0 37 90
+ 0.320853 0 1 tcp 1040 ------- 1 0.0 2.0 57 99
r 0.321093 0 1 tcp 1040 ------- 1 0.0 2.0 45 75
+ 0.321093 1 2 tcp 1040 ------- 1 0.0 2.0 45 75
- 0.321093 1 2 tcp 1040 ------- 1 0.0 2.0 45 75
r 0.321387 1 2 tcp 1040 ------- 1 0.0 2.0 42 69
+ 0.321387 2 1 ack 40 ------- 1 2.0 0.0 42 100
- 0.321387 2 1 ack 40 ------- 1 2.0 0.0 42 100
r 0.323173 2 1 ack 40 ------- 1 2.0 0.0 40 96
+ 0.323173 1 0 ack 40 ------- 1 2.0 0.0 40 96
- 0.323173 1 0 ack 40 ------- 1 2.0 0.0 40 96
- 0.323573 0 1 tcp 1040 ------- 1 0.0 2.0 49 83
r 0.325013 1 0 ack 40 ------- 1 2.0 0.0 38 92
+ 0.325013 0 1 tcp 1040 ------- 1 0.0 2.0 58 101
r 0.325253 0 1 tcp 1040 ------- 1 0.0 2.0 46 77
+ 0.325253 1 2 tcp 1040 ------- 1 0.0 2.0 46 77
- 0.325253 1 2 tcp 1040 ------- 1 0.0 2.0 46 77
r 0.325547 1 2 tcp 1040 ------- 1 0.0 2.0 43 71
+ 0.325547 2 1 ack 40 ------- 1 2.0 0.0 43 102
- 0.325547 2 1 ack 40 ------- 1 2.0 0.0 43 102
r 0.327333 2 1 ack 40 ------- 1 2.0 0.0 41 98
+ 0.327333 1 0 ack 40 ------- 1 2.0 0.0 41 98
- 0.327333 1 0 ack 40 ------- 1 2.0 0.0 41 98
- 0.327733 0 1 tcp 1040 ------- 1 0.0 2.0 50 85
r 0.329173 1 0 ack 40 ------- 1 2.0 0.0 39 94
+ 0.329173 0 1 tcp 1040 ------- 1 0.0 2.0 59 103
r 0.329413 0 1 tcp 1040 ------- 1 0.0 2.0 47 79
+ 0.329413 1 2 tcp 1040 ------- 1 0.0 2.0 47 79
- 0.329413 1 2 tcp 1040 ------- 1 0.0 2.0 47 79
r 0.329707 1 2 tcp 1040 ------- 1 0.0 2.0 44 73
+ 0.329707 2 1 ack 40 ------- 1 2.0 0.0 44 104
- 0.329707 2 1 ack 40 ------- 1 2.0 0.0 44 104
r 0.331493 2 1 ack 40 ------- 1 2.0 0.0 42 100
+ 0.331493 1 0 ack 40 ------- 1 2.0 0.0 42 100
- 0.331493 1 0 ack 40 ------- 1 2.0 0.0 42 100
- 0.331893 0 1 tcp 1040 ------- 1 0.0 2.0 51 87
r 0.333333 1 0 ack 40 ------- 1 2.0 0.0 40 96
+ 0.333333 0 1 tcp 1040 ------- 1 0.0 2.0 60 105
r 0.333573 0 1 tcp 1040 ------- 1 0.0 2.0 48 81
+ 0.333573 1 2 tcp 1040 ------- 1 0.0 2.0 48 81
- 0.333573 1 2 tcp 1040 ------- 1 0.0 2.0 48 81
r 0.333867 1 2 tcp 1040 ------- 1 0.0 2.0 45 75
+ 0.333867 2 1 ack 40 ------- 1 2.0 0.0 45 106
- 0.333867 2 1 ack 40 ------- 1 2.0 0.0 45 106
r 0.335653 2 1 ack 40 ------- 1 2.0 0.0 43 102
+ 0.335653 1 0 ack 40 ------- 1 2.0 0.0 43 102
- 0.335653 1 0 ack 40 ------- 1 2.0 0.0 43 102
- 0.336053 0 1 tcp 1040 ------- 1 0.0 2.0 52 89
r 0.337493 1 0 ack 40 ------- 1 2.0 0.0 41 98
+ 0.337493 0 1 tcp 1040 ------- 1 0.0 2.0 61 107
r 0.337733 0 1 tcp 1040 ------- 1 0.0 2.0 49 83
+ 0.337733 1 2 tcp 1040 ------- 1 0.0 2.0 49 83
- 0.337733 1 2 tcp 1040 ------- 1 0.0 2.0 49 83
r 0.338027 1 2 tcp 1040 ------- 1 0.0 2.0 46 77
+ 0.338027 2 1 ack 40 ------- 1 2.0 0.0 46 108
- 0.338027 2 1 ack 40 ------- 1 2.0 0.0 46 108
r 0.339813 2 1 ack 40 ------- 1 2.0 0.0 44 104
+ 0.339813 1 0 ack 40 ------- 1 2.0 0.0 44 104
- 0.339813 1 0 ack 40 ------- 1 2.0 0.0 44 104
- 0.340213 0 1 tcp 1040 ------- 1 0.0 2.0 53 91
r 0.341653 1 0 ack 40 ------- 1 2.0 0.0 42 100
+ 0.341653 0 1 tcp 1040 ------- 1 0.0 2.0 62 109
r 0.341893 0 1 tcp 1040 ------- 1 0.0 2.0 50 85
+ 0.341893 1 2 tcp 1040 ------- 1 0.0 2.0 50 85
- 0.341893 1 2 tcp 1040 ------- 1 0.0 2.0 50 85
r 0.342187 1 2 tcp 1040 ------- 1 0.0 2.0 47 79
+ 0.342187 2 1 ack 40 ------- 1 2.0 0.0 47 110
- 0.342187 2 1 ack 40 ------- 1 2.0 0.0 47 110
r 0.343973 2 1 ack 40 ------- 1 2.0 0.0 45 106
+ 0.343973 1 0 ack 40 ------- 1 2.0 0.0 45 106
- 0.343973 1 0 ack 40 ------- 1 2.0 0.0 45 106
- 0.344373 0 1 tcp 1040 ------- 1 0.0 2.0 54 93
r 0.345813 1 0 ack 40 ------- 1 2.0 0.0 43 102
+ 0.345813 0 1 tcp 1040 ------- 1 0.0 2.0 63 111
r 0.346053 0 1 tcp 1040 ------- 1 0.0 2.0 51 87
+ 0.346053 1 2 tcp 1040 ------- 1 0.0 2.0 51 87
- 0.346053 1 2 tcp 1040 ------- 1 0.0 2.0 51 87
r 0.346347 1 2 tcp 1040 ------- 1 0.0 2.0 48 81
+ 0.346347 2 1 ack 40 ------- 1 2.0 0.0 48 112
- 0.346347 2 1 ack 40 ------- 1 2.0 0.0 48 112
r 0.348133 2 1 ack 40 ------- 1 2.0 0.0 46 108
+ 0.348133 1 0 ack 40 ------- 1 2.0 0.0 46 108
- 0.348133 1 0 ack 40 ------- 1 2.0 0.0 46 108
- 0.348533 0 1 tcp 1040 ------- 1 0.0 2.0 55 95
r 0.349973 1 0 ack 40 ------- 1 2.0 0.0 44 104
+ 0.349973 0 1 tcp 1040 ------- 1 0.0 2.0 64 113
r 0.350213 0 1 tcp 1040 ------- 1 0.0 2.0 52 89
+ 0.350213 1 2 tcp 1040 ------- 1 0.0 2.0 52 89
- 0.350213 1 2 tcp 1040 ------- 1 0.0 2.0 52 89
r 0.350507 1 2 tcp 1040 ------- 1 0.0 2.0 49 83
+ 0.350507 2 1 ack 40 ------- 1 2.0 0.0 49 114
- 0.350507 2 1 ack 40 ------- 1 2.0 0.0 49 114
r 0.352293 2 1 ack 40 ------- 1 2.0 0.0 47 110
+ 0.352293 1 0 ack 40 ------- 1 2.0 0.0 47 110
- 0.352293 1 0 ack 40 ------- 1 2.0 0.0 47 110
- 0.352693 0 1 tcp 1040 ------- 1 0.0 2.0 56 97
r 0.354133 1 0 ack 40 ------- 1 2.0 0.0 45 106
+ 0.354133 0 1 tcp 1040 ------- 1 0.0 2.0 65 115
r 0.354373 0 1 tcp 1040 ------- 1 0.0 2.0 53 91
+ 0.354373 1 2 tcp 1040 ------- 1 0.0 2.0 53 91
- 0.354373 1 2 tcp 1040 ------- 1 0.0 2.0 53 91
r 0.354667 1 2 tcp 1040 ------- 1 0.0 2.0 50 85
+ 0.354667 2 1 ack 40 ------- 1 2.0 0.0 50 116
- 0.354667 2 1 ack 40 ------- 1 2.0 0.0 50 116
r 0.356453 2 1 ack 40 ------- 1 2.0 0.0 48 112
+ 0.356453 1 0 ack 40 ------- 1 2.0 0.0 48 112
- 0.356453 1 0 ack 40 ------- 1 2.0 0.0 48 112
- 0.356853 0 1 tcp 1040 ------- 1 0.0 2.0 57 99
r 0.358293 1 0 ack 40 ------- 1 2.0 0.0 46 108
+ 0.358293 0 1 tcp 1040 ------- 1 0.0 2.0 66 117
r 0.358533 0 1 tcp 1040 ------- 1 0.0 2.0 54 93
+ 0.358533 1 2 tcp 1040 ------- 1 0.0 2.0 54 93
- 0.358533 1 2 tcp 1040 ------- 1 0.0 2.0 54 93
r 0.358827 1 2 tcp 1040 ------- 1 0.0 2.0 51 87
+ 0.358827 2 1 ack 40 ------- 1 2.0 0.0 51 118
- 0.358827 2 1 ack 40 ------- 1 2.0 0.0 51 118