+ 0 0 1 tcp 40 ------- 0 0.0 2.0 0 0
- 0 0 1 tcp 40 ------- 0 0.0 2.0 0 0
r 0.010064 0 1 tcp 40 ------- 0 0.0 2.0 0 0
+ 0.010064 1 2 tcp 40 ------- 0 0.0 2.0 0 0
- 0.010064 1 2 tcp 40 ------- 0 0.0 2.0 0 0
r 0.020128 1 2 tcp 40 ------- 0 0.0 2.0 0 0
+ 0.020128 2 1 ack 40 ------- 0 2.0 0.0 0 1
- 0.020128 2 1 ack 40 ------- 0 2.0 0.0 0 1
r 0.030192 2 1 ack 40 ------- 0 2.0 0.0 0 1
+ 0.030192 1 0 ack 40 ------- 0 2.0 0.0 0 1
- 0.030192 1 0 ack 40 ------- 0 2.0 0.0 0 1
r 0.040256 1 0 ack 40 ------- 0 2.0 0.0 0 1
+ 0.040256 0 1 tcp 1040 ------- 0 0.0 2.0 1 2
- 0.040256 0 1 tcp 1040 ------- 0 0.0 2.0 1 2
+ 0.040256 0 1 tcp 1040 ------- 0 0.0 2.0 2 3
- 0.04192 0 1 tcp 1040 ------- 0 0.0 2.0 2 3
r 0.05192 0 1 tcp 1040 ------- 0 0.0 2.0 1 2
+ 0.05192 1 2 tcp 1040 ------- 0 0.0 2.0 1 2
- 0.05192 1 2 tcp 1040 ------- 0 0.0 2.0 1 2
r 0.053584 0 1 tcp 1040 ------- 0 0.0 2.0 2 3
+ 0.053584 1 2 tcp 1040 ------- 0 0.0 2.0 2 3
- 0.053584 1 2 tcp 1040 ------- 0 0.0 2.0 2 3
r 0.063584 1 2 tcp 1040 ------- 0 0.0 2.0 1 2
+ 0.063584 2 1 ack 40 ------- 0 2.0 0.0 1 4
- 0.063584 2 1 ack 40 ------- 0 2.0 0.0 1 4
r 0.065248 1 2 tcp 1040 ------- 0 0.0 2.0 2 3
+ 0.065248 2 1 ack 40 ------- 0 2.0 0.0 2 5
- 0.065248 2 1 ack 40 ------- 0 2.0 0.0 2 5
r 0.073648 2 1 ack 40 ------- 0 2.0 0.0 1 4
+ 0.073648 1 0 ack 40 ------- 0 2.0 0.0 1 4
- 0.073648 1 0 ack 40 ------- 0 2.0 0.0 1 4
r 0.075312 2 1 ack 40 ------- 0 2.0 0.0 2 5
+ 0.075312 1 0 ack 40 ------- 0 2.0 0.0 2 5
- 0.075312 1 0 ack 40 ------- 0 2.0 0.0 2 5
r 0.083712 1 0 ack 40 ------- 0 2.0 0.0 1 4
+ 0.083712 0 1 tcp 1040 ------- 0 0.0 2.0 3 6
- 0.083712 0 1 tcp 1040 ------- 0 0.0 2.0 3 6
+ 0.083712 0 1 tcp 1040 ------- 0 0.0 2.0 4 7
r 0.085376 1 0 ack 40 ------- 0 2.0 0.0 2 5
+ 0.085376 0 1 tcp 1040 ------- 0 0.0 2.0 5 8
+ 0.085376 0 1 tcp 1040 ------- 0 0.0 2.0 6 9
- 0.085376 0 1 tcp 1040 ------- 0 0.0 2.0 4 7
- 0.08704 0 1 tcp 1040 ------- 0 0.0 2.0 5 8
- 0.088704 0 1 tcp 1040 ------- 0 0.0 2.0 6 9
r 0.095376 0 1 tcp 1040 ------- 0 0.0 2.0 3 6
+ 0.095376 1 2 tcp 1040 ------- 0 0.0 2.0 3 6
- 0.095376 1 2 tcp 1040 ------- 0 0.0 2.0 3 6
r 0.09704 0 1 tcp 1040 ------- 0 0.0 2.0 4 7
+ 0.09704 1 2 tcp 1040 ------- 0 0.0 2.0 4 7
- 0.09704 1 2 tcp 1040 ------- 0 0.0 2.0 4 7
r 0.098704 0 1 tcp 1040 ------- 0 0.0 2.0 5 8
+ 0.098704 1 2 tcp 1040 ------- 0 0.0 2.0 5 8
- 0.098704 1 2 tcp 1040 ------- 0 0.0 2.0 5 8
r 0.100368 0 1 tcp 1040 ------- 0 0.0 2.0 6 9
+ 0.100368 1 2 tcp 1040 ------- 0 0.0 2.0 6 9
- 0.100368 1 2 tcp 1040 ------- 0 0.0 2.0 6 9
r 0.10704 1 2 tcp 1040 ------- 0 0.0 2.0 3 6
+ 0.10704 2 1 ack 40 ------- 0 2.0 0.0 3 10
- 0.10704 2 1 ack 40 ------- 0 2.0 0.0 3 10
r 0.108704 1 2 tcp 1040 ------- 0 0.0 2.0 4 7
+ 0.108704 2 1 ack 40 ------- 0 2.0 0.0 4 11
- 0.108704 2 1 ack 40 ------- 0 2.0 0.0 4 11
r 0.110368 1 2 tcp 1040 ------- 0 0.0 2.0 5 8
+ 0.110368 2 1 ack 40 ------- 0 2.0 0.0 5 12
- 0.110368 2 1 ack 40 ------- 0 2.0 0.0 5 12
r 0.112032 1 2 tcp 1040 ------- 0 0.0 2.0 6 9
+ 0.112032 2 1 ack 40 ------- 0 2.0 0.0 6 13
- 0.112032 2 1 ack 40 ------- 0 2.0 0.0 6 13
r 0.117104 2 1 ack 40 ------- 0 2.0 0.0 3 10
+ 0.117104 1 0 ack 40 ------- 0 2.0 0.0 3 10
- 0.117104 1 0 ack 40 ------- 0 2.0 0.0 3 10
r 0.118768 2 1 ack 40 ------- 0 2.0 0.0 4 11
+ 0.118768 1 0 ack 40 ------- 0 2.0 0.0 4 11
- 0.118768 1 0 ack 40 ------- 0 2.0 0.0 4 11
r 0.120432 2 1 ack 40 ------- 0 2.0 0.0 5 12
+ 0.120432 1 0 ack 40 ------- 0 2.0 0.0 5 12
- 0.120432 1 0 ack 40 ------- 0 2.0 0.0 5 12
r 0.122096 2 1 ack 40 ------- 0 2.0 0.0 6 13
+ 0.122096 1 0 ack 40 ------- 0 2.0 0.0 6 13
- 0.122096 1 0 ack 40 ------- 0 2.0 0.0 6 13
r 0.127168 1 0 ack 40 ------- 0 2.0 0.0 3 10
+ 0.127168 0 1 tcp 1040 ------- 0 0.0 2.0 7 14
- 0.127168 0 1 tcp 1040 ------- 0 0.0 2.0 7 14
+ 0.127168 0 1 tcp 1040 ------- 0 0.0 2.0 8 15
r 0.128832 1 0 ack 40 ------- 0 2.0 0.0 4 11
+ 0.128832 0 1 tcp 1040 ------- 0 0.0 2.0 9 16
+ 0.128832 0 1 tcp 1040 ------- 0 0.0 2.0 10 17
- 0.128832 0 1 tcp 1040 ------- 0 0.0 2.0 8 15
r 0.130496 1 0 ack 40 ------- 0 2.0 0.0 5 12
+ 0.130496 0 1 tcp 1040 ------- 0 0.0 2.0 11 18
+ 0.130496 0 1 tcp 1040 ------- 0 0.0 2.0 12 19
- 0.130496 0 1 tcp 1040 ------- 0 0.0 2.0 9 16
r 0.13216 1 0 ack 40 ------- 0 2.0 0.0 6 13
+ 0.13216 0 1 tcp 1040 ------- 0 0.0 2.0 13 20
+ 0.13216 0 1 tcp 1040 ------- 0 0.0 2.0 14 21
d 0.13216 0 1 tcp 1040 ------- 0 0.0 2.0 14 21
- 0.13216 0 1 tcp 1040 ------- 0 0.0 2.0 10 17
- 0.133824 0 1 tcp 1040 ------- 0 0.0 2.0 11 18
- 0.135488 0 1 tcp 1040 ------- 0 0.0 2.0 12 19
- 0.137152 0 1 tcp 1040 ------- 0 0.0 2.0 13 20
r 0.138832 0 1 tcp 1040 ------- 0 0.0 2.0 7 14
+ 0.138832 1 2 tcp 1040 ------- 0 0.0 2.0 7 14
- 0.138832 1 2 tcp 1040 ------- 0 0.0 2.0 7 14
r 0.140496 0 1 tcp 1040 ------- 0 0.0 2.0 8 15
+ 0.140496 1 2 tcp 1040 ------- 0 0.0 2.0 8 15
- 0.140496 1 2 tcp 1040 ------- 0 0.0 2.0 8 15
r 0.14216 0 1 tcp 1040 ------- 0 0.0 2.0 9 16
+ 0.14216 1 2 tcp 1040 ------- 0 0.0 2.0 9 16
- 0.14216 1 2 tcp 1040 ------- 0 0.0 2.0 9 16
r 0.143824 0 1 tcp 1040 ------- 0 0.0 2.0 10 17
+ 0.143824 1 2 tcp 1040 ------- 0 0.0 2.0 10 17
- 0.143824 1 2 tcp 1040 ------- 0 0.0 2.0 10 17
r 0.145488 0 1 tcp 1040 ------- 0 0.0 2.0 11 18
+ 0.145488 1 2 tcp 1040 ------- 0 0.0 2.0 11 18
- 0.145488 1 2 tcp 1040 ------- 0 0.0 2.0 11 18
r 0.147152 0 1 tcp 1040 ------- 0 0.0 2.0 12 19
+ 0.147152 1 2 tcp 1040 ------- 0 0.0 2.0 12 19
- 0.147152 1 2 tcp 1040 ------- 0 0.0 2.0 12 19
r 0.148816 0 1 tcp 1040 ------- 0 0.0 2.0 13 20
+ 0.148816 1 2 tcp 1040 ------- 0 0.0 2.0 13 20
- 0.148816 1 2 tcp 1040 ------- 0 0.0 2.0 13 20
r 0.150496 1 2 tcp 1040 ------- 0 0.0 2.0 7 14
+ 0.150496 2 1 ack 40 ------- 0 2.0 0.0 7 22
- 0.150496 2 1 ack 40 ------- 0 2.0 0.0 7 22
r 0.15216 1 2 tcp 1040 ------- 0 0.0 2.0 8 15
+ 0.15216 2 1 ack 40 ------- 0 2.0 0.0 8 23
- 0.15216 2 1 ack 40 ------- 0 2.0 0.0 8 23
r 0.153824 1 2 tcp 1040 ------- 0 0.0 2.0 9 16
+ 0.153824 2 1 ack 40 ------- 0 2.0 0.0 9 24
- 0.153824 2 1 ack 40 ------- 0 2.0 0.0 9 24
r 0.155488 1 2 tcp 1040 ------- 0 0.0 2.0 10 17
+ 0.155488 2 1 ack 40 ------- 0 2.0 0.0 10 25
- 0.155488 2 1 ack 40 ------- 0 2.0 0.0 10 25
r 0.157152 1 2 tcp 1040 ------- 0 0.0 2.0 11 18
+ 0.157152 2 1 ack 40 ------- 0 2.0 0.0 11 26
- 0.157152 2 1 ack 40 ------- 0 2.0 0.0 11 26
r 0.158816 1 2 tcp 1040 ------- 0 0.0 2.0 12 19
+ 0.158816 2 1 ack 40 ------- 0 2.0 0.0 12 27
- 0.158816 2 1 ack 40 ------- 0 2.0 0.0 12 27
r 0.16048 1 2 tcp 1040 ------- 0 0.0 2.0 13 20
+ 0.16048 2 1 ack 40 ------- 0 2.0 0.0 13 28
- 0.16048 2 1 ack 40 ------- 0 2.0 0.0 13 28
r 0.16056 2 1 ack 40 ------- 0 2.0 0.0 7 22
+ 0.16056 1 0 ack 40 ------- 0 2.0 0.0 7 22
- 0.16056 1 0 ack 40 ------- 0 2.0 0.0 7 22
r 0.162224 2 1 ack 40 ------- 0 2.0 0.0 8 23
+ 0.162224 1 0 ack 40 ------- 0 2.0 0.0 8 23
- 0.162224 1 0 ack 40 ------- 0 2.0 0.0 8 23
r 0.163888 2 1 ack 40 ------- 0 2.0 0.0 9 24
+ 0.163888 1 0 ack 40 ------- 0 2.0 0.0 9 24
- 0.163888 1 0 ack 40 ------- 0 2.0 0.0 9 24
r 0.165552 2 1 ack 40 ------- 0 2.0 0.0 10 25
+ 0.165552 1 0 ack 40 ------- 0 2.0 0.0 10 25
- 0.165552 1 0 ack 40 ------- 0 2.0 0.0 10 25
r 0.167216 2 1 ack 40 ------- 0 2.0 0.0 11 26
+ 0.167216 1 0 ack 40 ------- 0 2.0 0.0 11 26
- 0.167216 1 0 ack 40 ------- 0 2.0 0.0 11 26
r 0.16888 2 1 ack 40 ------- 0 2.0 0.0 12 27
+ 0.16888 1 0 ack 40 ------- 0 2.0 0.0 12 27
- 0.16888 1 0 ack 40 ------- 0 2.0 0.0 12 27
r 0.170544 2 1 ack 40 ------- 0 2.0 0.0 13 28
+ 0.170544 1 0 ack 40 ------- 0 2.0 0.0 13 28
- 0.170544 1 0 ack 40 ------- 0 2.0 0.0 13 28
r 0.170624 1 0 ack 40 ------- 0 2.0 0.0 7 22
+ 0.170624 0 1 tcp 1040 ------- 0 0.0 2.0 15 29
- 0.170624 0 1 tcp 1040 ------- 0 0.0 2.0 15 29
+ 0.170624 0 1 tcp 1040 ------- 0 0.0 2.0 16 30
r 0.172288 1 0 ack 40 ------- 0 2.0 0.0 8 23
+ 0.172288 0 1 tcp 1040 ------- 0 0.0 2.0 17 31
+ 0.172288 0 1 tcp 1040 ------- 0 0.0 2.0 18 32
- 0.172288 0 1 tcp 1040 ------- 0 0.0 2.0 16 30
r 0.173952 1 0 ack 40 ------- 0 2.0 0.0 9 24
+ 0.173952 0 1 tcp 1040 ------- 0 0.0 2.0 19 33
+ 0.173952 0 1 tcp 1040 ------- 0 0.0 2.0 20 34
- 0.173952 0 1 tcp 1040 ------- 0 0.0 2.0 17 31
r 0.175616 1 0 ack 40 ------- 0 2.0 0.0 10 25
+ 0.175616 0 1 tcp 1040 ------- 0 0.0 2.0 21 35
+ 0.175616 0 1 tcp 1040 ------- 0 0.0 2.0 22 36
d 0.175616 0 1 tcp 1040 ------- 0 0.0 2.0 22 36
- 0.175616 0 1 tcp 1040 ------- 0 0.0 2.0 18 32
r 0.17728 1 0 ack 40 ------- 0 2.0 0.0 11 26
+ 0.17728 0 1 tcp 1040 ------- 0 0.0 2.0 23 37
+ 0.17728 0 1 tcp 1040 ------- 0 0.0 2.0 24 38
d 0.17728 0 1 tcp 1040 ------- 0 0.0 2.0 24 38
- 0.17728 0 1 tcp 1040 ------- 0 0.0 2.0 19 33
r 0.178944 1 0 ack 40 ------- 0 2.0 0.0 12 27
+ 0.178944 0 1 tcp 1040 ------- 0 0.0 2.0 25 39
+ 0.178944 0 1 tcp 1040 ------- 0 0.0 2.0 26 40
d 0.178944 0 1 tcp 1040 ------- 0 0.0 2.0 26 40
- 0.178944 0 1 tcp 1040 ------- 0 0.0 2.0 20 34
r 0.180608 1 0 ack 40 ------- 0 2.0 0.0 13 28
+ 0.180608 0 1 tcp 1040 ------- 0 0.0 2.0 27 41
+ 0.180608 0 1 tcp 1040 ------- 0 0.0 2.0 28 42
d 0.180608 0 1 tcp 1040 ------- 0 0.0 2.0 28 42
- 0.180608 0 1 tcp 1040 ------- 0 0.0 2.0 21 35
- 0.182272 0 1 tcp 1040 ------- 0 0.0 2.0 23 37
r 0.182288 0 1 tcp 1040 ------- 0 0.0 2.0 15 29
+ 0.182288 1 2 tcp 1040 ------- 0 0.0 2.0 15 29
- 0.182288 1 2 tcp 1040 ------- 0 0.0 2.0 15 29
- 0.183936 0 1 tcp 1040 ------- 0 0.0 2.0 25 39
r 0.183952 0 1 tcp 1040 ------- 0 0.0 2.0 16 30
+ 0.183952 1 2 tcp 1040 ------- 0 0.0 2.0 16 30
- 0.183952 1 2 tcp 1040 ------- 0 0.0 2.0 16 30
- 0.1856 0 1 tcp 1040 ------- 0 0.0 2.0 27 41
r 0.185616 0 1 tcp 1040 ------- 0 0.0 2.0 17 31
+ 0.185616 1 2 tcp 1040 ------- 0 0.0 2.0 17 31
- 0.185616 1 2 tcp 1040 ------- 0 0.0 2.0 17 31
r 0.18728 0 1 tcp 1040 ------- 0 0.0 2.0 18 32
+ 0.18728 1 2 tcp 1040 ------- 0 0.0 2.0 18 32
- 0.18728 1 2 tcp 1040 ------- 0 0.0 2.0 18 32
r 0.188944 0 1 tcp 1040 ------- 0 0.0 2.0 19 33
+ 0.188944 1 2 tcp 1040 ------- 0 0.0 2.0 19 33
- 0.188944 1 2 tcp 1040 ------- 0 0.0 2.0 19 33
r 0.190608 0 1 tcp 1040 ------- 0 0.0 2.0 20 34
+ 0.190608 1 2 tcp 1040 ------- 0 0.0 2.0 20 34
- 0.190608 1 2 tcp 1040 ------- 0 0.0 2.0 20 34
r 0.192272 0 1 tcp 1040 ------- 0 0.0 2.0 21 35
+ 0.192272 1 2 tcp 1040 ------- 0 0.0 2.0 21 35
- 0.192272 1 2 tcp 1040 ------- 0 0.0 2.0 21 35
r 0.193936 0 1 tcp 1040 ------- 0 0.0 2.0 23 37
+ 0.193936 1 2 tcp 1040 ------- 0 0.0 2.0 23 37
- 0.193936 1 2 tcp 1040 ------- 0 0.0 2.0 23 37
r 0.193952 1 2 tcp 1040 ------- 0 0.0 2.0 15 29
+ 0.193952 2 1 ack 40 ------- 0 2.0 0.0 13 43
- 0.193952 2 1 ack 40 ------- 0 2.0 0.0 13 43
r 0.1956 0 1 tcp 1040 ------- 0 0.0 2.0 25 39
+ 0.1956 1 2 tcp 1040 ------- 0 0.0 2.0 25 39
- 0.1956 1 2 tcp 1040 ------- 0 0.0 2.0 25 39
r 0.195616 1 2 tcp 1040 ------- 0 0.0 2.0 16 30
+ 0.195616 2 1 ack 40 ------- 0 2.0 0.0 13 44
- 0.195616 2 1 ack 40 ------- 0 2.0 0.0 13 44
r 0.197264 0 1 tcp 1040 ------- 0 0.0 2.0 27 41
+ 0.197264 1 2 tcp 1040 ------- 0 0.0 2.0 27 41
- 0.197264 1 2 tcp 1040 ------- 0 0.0 2.0 27 41
r 0.19728 1 2 tcp 1040 ------- 0 0.0 2.0 17 31
+ 0.19728 2 1 ack 40 ------- 0 2.0 0.0 13 45
- 0.19728 2 1 ack 40 ------- 0 2.0 0.0 13 45
r 0.198944 1 2 tcp 1040 ------- 0 0.0 2.0 18 32
+ 0.198944 2 1 ack 40 ------- 0 2.0 0.0 13 46
- 0.198944 2 1 ack 40 ------- 0 2.0 0.0 13 46
r 0.200608 1 2 tcp 1040 ------- 0 0.0 2.0 19 33
+ 0.200608 2 1 ack 40 ------- 0 2.0 0.0 13 47
- 0.200608 2 1 ack 40 ------- 0 2.0 0.0 13 47
r 0.202272 1 2 tcp 1040 ------- 0 0.0 2.0 20 34
+ 0.202272 2 1 ack 40 ------- 0 2.0 0.0 13 48
- 0.202272 2 1 ack 40 ------- 0 2.0 0.0 13 48
r 0.203936 1 2 tcp 1040 ------- 0 0.0 2.0 21 35
+ 0.203936 2 1 ack 40 ------- 0 2.0 0.0 13 49
- 0.203936 2 1 ack 40 ------- 0 2.0 0.0 13 49
r 0.204016 2 1 ack 40 ------- 0 2.0 0.0 13 43
+ 0.204016 1 0 ack 40 ------- 0 2.0 0.0 13 43
- 0.204016 1 0 ack 40 ------- 0 2.0 0.0 13 43
r 0.2056 1 2 tcp 1040 ------- 0 0.0 2.0 23 37
+ 0.2056 2 1 ack 40 ------- 0 2.0 0.0 13 50
- 0.2056 2 1 ack 40 ------- 0 2.0 0.0 13 50
r 0.20568 2 1 ack 40 ------- 0 2.0 0.0 13 44
+ 0.20568 1 0 ack 40 ------- 0 2.0 0.0 13 44
- 0.20568 1 0 ack 40 ------- 0 2.0 0.0 13 44
r 0.207264 1 2 tcp 1040 ------- 0 0.0 2.0 25 39
+ 0.207264 2 1 ack 40 ------- 0 2.0 0.0 13 51
- 0.207264 2 1 ack 40 ------- 0 2.0 0.0 13 51
r 0.207344 2 1 ack 40 ------- 0 2.0 0.0 13 45
+ 0.207344 1 0 ack 40 ------- 0 2.0 0.0 13 45
- 0.207344 1 0 ack 40 ------- 0 2.0 0.0 13 45
r 0.208928 1 2 tcp 1040 ------- 0 0.0 2.0 27 41
+ 0.208928 2 1 ack 40 ------- 0 2.0 0.0 13 52
- 0.208928 2 1 ack 40 ------- 0 2.0 0.0 13 52
r 0.209008 2 1 ack 40 ------- 0 2.0 0.0 13 46
+ 0.209008 1 0 ack 40 ------- 0 2.0 0.0 13 46
- 0.209008 1 0 ack 40 ------- 0 2.0 0.0 13 46
r 0.210672 2 1 ack 40 ------- 0 2.0 0.0 13 47
+ 0.210672 1 0 ack 40 ------- 0 2.0 0.0 13 47
- 0.210672 1 0 ack 40 ------- 0 2.0 0.0 13 47
r 0.212336 2 1 ack 40 ------- 0 2.0 0.0 13 48
+ 0.212336 1 0 ack 40 ------- 0 2.0 0.0 13 48
- 0.212336 1 0 ack 40 ------- 0 2.0 0.0 13 48
r 0.214 2 1 ack 40 ------- 0 2.0 0.0 13 49
+ 0.214 1 0 ack 40 ------- 0 2.0 0.0 13 49
- 0.214 1 0 ack 40 ------- 0 2.0 0.0 13 49
r 0.21408 1 0 ack 40 ------- 0 2.0 0.0 13 43
+ 0.21408 0 1 tcp 1040 ------- 0 0.0 2.0 29 53
- 0.21408 0 1 tcp 1040 ------- 0 0.0 2.0 29 53
r 0.215664 2 1 ack 40 ------- 0 2.0 0.0 13 50
+ 0.215664 1 0 ack 40 ------- 0 2.0 0.0 13 50
- 0.215664 1 0 ack 40 ------- 0 2.0 0.0 13 50
r 0.215744 1 0 ack 40 ------- 0 2.0 0.0 13 44
+ 0.215744 0 1 tcp 1040 ------- 0 0.0 2.0 30 54
- 0.215744 0 1 tcp 1040 ------- 0 0.0 2.0 30 54
r 0.217328 2 1 ack 40 ------- 0 2.0 0.0 13 51
+ 0.217328 1 0 ack 40 ------- 0 2.0 0.0 13 51
- 0.217328 1 0 ack 40 ------- 0 2.0 0.0 13 51
r 0.217408 1 0 ack 40 ------- 0 2.0 0.0 13 45
+ 0.217408 0 1 tcp 1040 ---A--- 0 0.0 2.0 14 55
- 0.217408 0 1 tcp 1040 ---A--- 0 0.0 2.0 14 55
r 0.218992 2 1 ack 40 ------- 0 2.0 0.0 13 52
+ 0.218992 1 0 ack 40 ------- 0 2.0 0.0 13 52
- 0.218992 1 0 ack 40 ------- 0 2.0 0.0 13 52
r 0.219072 1 0 ack 40 ------- 0 2.0 0.0 13 46
r 0.220736 1 0 ack 40 ------- 0 2.0 0.0 13 47
r 0.2224 1 0 ack 40 ------- 0 2.0 0.0 13 48
r 0.224064 1 0 ack 40 ------- 0 2.0 0.0 13 49
r 0.225728 1 0 ack 40 ------- 0 2.0 0.0 13 50
r 0.225744 0 1 tcp 1040 ------- 0 0.0 2.0 29 53
+ 0.225744 1 2 tcp 1040 ------- 0 0.0 2.0 29 53
- 0.225744 1 2 tcp 1040 ------- 0 0.0 2.0 29 53
r 0.227392 1 0 ack 40 ------- 0 2.0 0.0 13 51
r 0.227408 0 1 tcp 1040 ------- 0 0.0 2.0 30 54
+ 0.227408 1 2 tcp 1040 ------- 0 0.0 2.0 30 54
- 0.227408 1 2 tcp 1040 ------- 0 0.0 2.0 30 54
r 0.229056 1 0 ack 40 ------- 0 2.0 0.0 13 52
r 0.229072 0 1 tcp 1040 ---A--- 0 0.0 2.0 14 55
+ 0.229072 1 2 tcp 1040 ---A--- 0 0.0 2.0 14 55
- 0.229072 1 2 tcp 1040 ---A--- 0 0.0 2.0 14 55
r 0.237408 1 2 tcp 1040 ------- 0 0.0 2.0 29 53
+ 0.237408 2 1 ack 40 ------- 0 2.0 0.0 13 56
- 0.237408 2 1 ack 40 ------- 0 2.0 0.0 13 56
r 0.239072 1 2 tcp 1040 ------- 0 0.0 2.0 30 54
+ 0.239072 2 1 ack 40 ------- 0 2.0 0.0 13 57
- 0.239072 2 1 ack 40 ------- 0 2.0 0.0 13 57
r 0.240736 1 2 tcp 1040 ---A--- 0 0.0 2.0 14 55
+ 0.240736 2 1 ack 40 ------- 0 2.0 0.0 21 58
- 0.240736 2 1 ack 40 ------- 0 2.0 0.0 21 58
r 0.247472 2 1 ack 40 ------- 0 2.0 0.0 13 56
+ 0.247472 1 0 ack 40 ------- 0 2.0 0.0 13 56
- 0.247472 1 0 ack 40 ------- 0 2.0 0.0 13 56
r 0.249136 2 1 ack 40 ------- 0 2.0 0.0 13 57
+ 0.249136 1 0 ack 40 ------- 0 2.0 0.0 13 57
- 0.249136 1 0 ack 40 ------- 0 2.0 0.0 13 57
r 0.2508 2 1 ack 40 ------- 0 2.0 0.0 21 58
+ 0.2508 1 0 ack 40 ------- 0 2.0 0.0 21 58
- 0.2508 1 0 ack 40 ------- 0 2.0 0.0 21 58
r 0.257536 1 0 ack 40 ------- 0 2.0 0.0 13 56
r 0.2592 1 0 ack 40 ------- 0 2.0 0.0 13 57
r 0.260864 1 0 ack 40 ------- 0 2.0 0.0 21 58
+ 0.260864 0 1 tcp 1040 ------- 0 0.0 2.0 22 59
- 0.260864 0 1 tcp 1040 ------- 0 0.0 2.0 22 59
+ 0.260864 0 1 tcp 1040 ------- 0 0.0 2.0 23 60
- 0.262528 0 1 tcp 1040 ------- 0 0.0 2.0 23 60
r 0.272528 0 1 tcp 1040 ------- 0 0.0 2.0 22 59
+ 0.272528 1 2 tcp 1040 ------- 0 0.0 2.0 22 59
- 0.272528 1 2 tcp 1040 ------- 0 0.0 2.0 22 59
r 0.274192 0 1 tcp 1040 ------- 0 0.0 2.0 23 60
+ 0.274192 1 2 tcp 1040 ------- 0 0.0 2.0 23 60
- 0.274192 1 2 tcp 1040 ------- 0 0.0 2.0 23 60
r 0.284192 1 2 tcp 1040 ------- 0 0.0 2.0 22 59
+ 0.284192 2 1 ack 40 ------- 0 2.0 0.0 23 61
- 0.284192 2 1 ack 40 ------- 0 2.0 0.0 23 61
r 0.285856 1 2 tcp 1040 ------- 0 0.0 2.0 23 60
+ 0.285856 2 1 ack 40 ------- 0 2.0 0.0 23 62
- 0.285856 2 1 ack 40 ------- 0 2.0 0.0 23 62
r 0.294256 2 1 ack 40 ------- 0 2.0 0.0 23 61
+ 0.294256 1 0 ack 40 ------- 0 2.0 0.0 23 61
- 0.294256 1 0 ack 40 ------- 0 2.0 0.0 23 61
r 0.29592 2 1 ack 40 ------- 0 2.0 0.0 23 62
+ 0.29592 1 0 ack 40 ------- 0 2.0 0.0 23 62
- 0.29592 1 0 ack 40 ------- 0 2.0 0.0 23 62
r 0.30432 1 0 ack 40 ------- 0 2.0 0.0 23 61
+ 0.30432 0 1 tcp 1040 ------- 0 0.0 2.0 24 63
- 0.30432 0 1 tcp 1040 ------- 0 0.0 2.0 24 63
+ 0.30432 0 1 tcp 1040 ------- 0 0.0 2.0 25 64
+ 0.30432 0 1 tcp 1040 ------- 0 0.0 2.0 26 65
r 0.305984 1 0 ack 40 ------- 0 2.0 0.0 23 62
+ 0.305984 0 1 tcp 1040 ------- 0 0.0 2.0 27 66
- 0.305984 0 1 tcp 1040 ------- 0 0.0 2.0 25 64
- 0.307648 0 1 tcp 1040 ------- 0 0.0 2.0 26 65
- 0.309312 0 1 tcp 1040 ------- 0 0.0 2.0 27 66
r 0.315984 0 1 tcp 1040 ------- 0 0.0 2.0 24 63
+ 0.315984 1 2 tcp 1040 ------- 0 0.0 2.0 24 63
- 0.315984 1 2 tcp 1040 ------- 0 0.0 2.0 24 63
r 0.317648 0 1 tcp 1040 ------- 0 0.0 2.0 25 64
+ 0.317648 1 2 tcp 1040 ------- 0 0.0 2.0 25 64
- 0.317648 1 2 tcp 1040 ------- 0 0.0 2.0 25 64
r 0.319312 0 1 tcp 1040 ------- 0 0.0 2.0 26 65
+ 0.319312 1 2 tcp 1040 ------- 0 0.0 2.0 26 65
- 0.319312 1 2 tcp 1040 ------- 0 0.0 2.0 26 65
r 0.320976 0 1 tcp 1040 ------- 0 0.0 2.0 27 66
+ 0.320976 1 2 tcp 1040 ------- 0 0.0 2.0 27 66
- 0.320976 1 2 tcp 1040 ------- 0 0.0 2.0 27 66
r 0.327648 1 2 tcp 1040 ------- 0 0.0 2.0 24 63
+ 0.327648 2 1 ack 40 ------- 0 2.0 0.0 25 67
- 0.327648 2 1 ack 40 ------- 0 2.0 0.0 25 67
r 0.329312 1 2 tcp 1040 ------- 0 0.0 2.0 25 64
+ 0.329312 2 1 ack 40 ------- 0 2.0 0.0 25 68
- 0.329312 2 1 ack 40 ------- 0 2.0 0.0 25 68
r 0.330976 1 2 tcp 1040 ------- 0 0.0 2.0 26 65
+ 0.330976 2 1 ack 40 ------- 0 2.0 0.0 27 69
- 0.330976 2 1 ack 40 ------- 0 2.0 0.0 27 69
r 0.33264 1 2 tcp 1040 ------- 0 0.0 2.0 27 66
+ 0.33264 2 1 ack 40 ------- 0 2.0 0.0 27 70
- 0.33264 2 1 ack 40 ------- 0 2.0 0.0 27 70
r 0.337712 2 1 ack 40 ------- 0 2.0 0.0 25 67
+ 0.337712 1 0 ack 40 ------- 0 2.0 0.0 25 67
- 0.337712 1 0 ack 40 ------- 0 2.0 0.0 25 67
r 0.339376 2 1 ack 40 ------- 0 2.0 0.0 25 68
+ 0.339376 1 0 ack 40 ------- 0 2.0 0.0 25 68
- 0.339376 1 0 ack 40 ------- 0 2.0 0.0 25 68
r 0.34104 2 1 ack 40 ------- 0 2.0 0.0 27 69
+ 0.34104 1 0 ack 40 ------- 0 2.0 0.0 27 69
- 0.34104 1 0 ack 40 ------- 0 2.0 0.0 27 69
r 0.342704 2 1 ack 40 ------- 0 2.0 0.0 27 70
+ 0.342704 1 0 ack 40 ------- 0 2.0 0.0 27 70
- 0.342704 1 0 ack 40 ------- 0 2.0 0.0 27 70
r 0.347776 1 0 ack 40 ------- 0 2.0 0.0 25 67
+ 0.347776 0 1 tcp 1040 ------- 0 0.0 2.0 28 71
- 0.347776 0 1 tcp 1040 ------- 0 0.0 2.0 28 71
+ 0.347776 0 1 tcp 1040 ------- 0 0.0 2.0 29 72
r 0.34944 1 0 ack 40 ------- 0 2.0 0.0 25 68
+ 0.34944 0 1 tcp 1040 ------- 0 0.0 2.0 30 73
- 0.34944 0 1 tcp 1040 ------- 0 0.0 2.0 29 72
r 0.351104 1 0 ack 40 ------- 0 2.0 0.0 27 69
+ 0.351104 0 1 tcp 1040 ------- 0 0.0 2.0 31 74
+ 0.351104 0 1 tcp 1040 ------- 0 0.0 2.0 32 75
- 0.351104 0 1 tcp 1040 ------- 0 0.0 2.0 30 73
r 0.352768 1 0 ack 40 ------- 0 2.0 0.0 27 70
+ 0.352768 0 1 tcp 1040 ------- 0 0.0 2.0 33 76
- 0.352768 0 1 tcp 1040 ------- 0 0.0 2.0 31 74
- 0.354432 0 1 tcp 1040 ------- 0 0.0 2.0 32 75
- 0.356096 0 1 tcp 1040 ------- 0 0.0 2.0 33 76
r 0.35944 0 1 tcp 1040 ------- 0 0.0 2.0 28 71
+ 0.35944 1 2 tcp 1040 ------- 0 0.0 2.0 28 71
- 0.35944 1 2 tcp 1040 ------- 0 0.0 2.0 28 71
r 0.361104 0 1 tcp 1040 ------- 0 0.0 2.0 29 72
+ 0.361104 1 2 tcp 1040 ------- 0 0.0 2.0 29 72
- 0.361104 1 2 tcp 1040 ------- 0 0.0 2.0 29 72
r 0.362768 0 1 tcp 1040 ------- 0 0.0 2.0 30 73
+ 0.362768 1 2 tcp 1040 ------- 0 0.0 2.0 30 73
- 0.362768 1 2 tcp 1040 ------- 0 0.0 2.0 30 73
r 0.364432 0 1 tcp 1040 ------- 0 0.0 2.0 31 74
+ 0.364432 1 2 tcp 1040 ------- 0 0.0 2.0 31 74
- 0.364432 1 2 tcp 1040 ------- 0 0.0 2.0 31 74
r 0.366096 0 1 tcp 1040 ------- 0 0.0 2.0 32 75
+ 0.366096 1 2 tcp 1040 ------- 0 0.0 2.0 32 75
- 0.366096 1 2 tcp 1040 ------- 0 0.0 2.0 32 75
r 0.36776 0 1 tcp 1040 ------- 0 0.0 2.0 33 76
+ 0.36776 1 2 tcp 1040 ------- 0 0.0 2.0 33 76
- 0.36776 1 2 tcp 1040 ------- 0 0.0 2.0 33 76
r 0.371104 1 2 tcp 1040 ------- 0 0.0 2.0 28 71
+ 0.371104 2 1 ack 40 ------- 0 2.0 0.0 30 77
- 0.371104 2 1 ack 40 ------- 0 2.0 0.0 30 77
r 0.372768 1 2 tcp 1040 ------- 0 0.0 2.0 29 72
+ 0.372768 2 1 ack 40 ------- 0 2.0 0.0 30 78
- 0.372768 2 1 ack 40 ------- 0 2.0 0.0 30 78
r 0.374432 1 2 tcp 1040 ------- 0 0.0 2.0 30 73
+ 0.374432 2 1 ack 40 ------- 0 2.0 0.0 30 79
- 0.374432 2 1 ack 40 ------- 0 2.0 0.0 30 79
r 0.376096 1 2 tcp 1040 ------- 0 0.0 2.0 31 74
+ 0.376096 2 1 ack 40 ------- 0 2.0 0.0 31 80
- 0.376096 2 1 ack 40 ------- 0 2.0 0.0 31 80
r 0.37776 1 2 tcp 1040 ------- 0 0.0 2.0 32 75
+ 0.37776 2 1 ack 40 ------- 0 2.0 0.0 32 81
- 0.37776 2 1 ack 40 ------- 0 2.0 0.0 32 81
r 0.379424 1 2 tcp 1040 ------- 0 0.0 2.0 33 76
+ 0.379424 2 1 ack 40 ------- 0 2.0 0.0 33 82
- 0.379424 2 1 ack 40 ------- 0 2.0 0.0 33 82
r 0.381168 2 1 ack 40 ------- 0 2.0 0.0 30 77
+ 0.381168 1 0 ack 40 ------- 0 2.0 0.0 30 77
- 0.381168 1 0 ack 40 ------- 0 2.0 0.0 30 77
r 0.382832 2 1 ack 40 ------- 0 2.0 0.0 30 78
+ 0.382832 1 0 ack 40 ------- 0 2.0 0.0 30 78
- 0.382832 1 0 ack 40 ------- 0 2.0 0.0 30 78
r 0.384496 2 1 ack 40 ------- 0 2.0 0.0 30 79
+ 0.384496 1 0 ack 40 ------- 0 2.0 0.0 30 79
- 0.384496 1 0 ack 40 ------- 0 2.0 0.0 30 79
r 0.38616 2 1 ack 40 ------- 0 2.0 0.0 31 80
+ 0.38616 1 0 ack 40 ------- 0 2.0 0.0 31 80
- 0.38616 1 0 ack 40 ------- 0 2.0 0.0 31 80
r 0.387824 2 1 ack 40 ------- 0 2.0 0.0 32 81
+ 0.387824 1 0 ack 40 ------- 0 2.0 0.0 32 81
- 0.387824 1 0 ack 40 ------- 0 2.0 0.0 32 81
r 0.389488 2 1 ack 40 ------- 0 2.0 0.0 33 82
+ 0.389488 1 0 ack 40 ------- 0 2.0 0.0 33 82
- 0.389488 1 0 ack 40 ------- 0 2.0 0.0 33 82
r 0.391232 1 0 ack 40 ------- 0 2.0 0.0 30 77
+ 0.391232 0 1 tcp 1040 ------- 0 0.0 2.0 34 83
- 0.391232 0 1 tcp 1040 ------- 0 0.0 2.0 34 83
+ 0.391232 0 1 tcp 1040 ------- 0 0.0 2.0 35 84
+ 0.391232 0 1 tcp 1040 ------- 0 0.0 2.0 36 85
r 0.392896 1 0 ack 40 ------- 0 2.0 0.0 30 78
+ 0.392896 0 1 tcp 1040 ------- 0 0.0 2.0 37 86
- 0.392896 0 1 tcp 1040 ------- 0 0.0 2.0 35 84
r 0.39456 1 0 ack 40 ------- 0 2.0 0.0 30 79
+ 0.39456 0 1 tcp 1040 ------- 0 0.0 2.0 38 87
- 0.39456 0 1 tcp 1040 ------- 0 0.0 2.0 36 85
r 0.396224 1 0 ack 40 ------- 0 2.0 0.0 31 80
- 0.396224 0 1 tcp 1040 ------- 0 0.0 2.0 37 86
r 0.397888 1 0 ack 40 ------- 0 2.0 0.0 32 81
+ 0.397888 0 1 tcp 1040 ------- 0 0.0 2.0 39 88
- 0.397888 0 1 tcp 1040 ------- 0 0.0 2.0 38 87
r 0.399552 1 0 ack 40 ------- 0 2.0 0.0 33 82
+ 0.399552 0 1 tcp 1040 ------- 0 0.0 2.0 40 89
- 0.399552 0 1 tcp 1040 ------- 0 0.0 2.0 39 88
- 0.401216 0 1 tcp 1040 ------- 0 0.0 2.0 40 89
r 0.402896 0 1 tcp 1040 ------- 0 0.0 2.0 34 83
+ 0.402896 1 2 tcp 1040 ------- 0 0.0 2.0 34 83
- 0.402896 1 2 tcp 1040 ------- 0 0.0 2.0 34 83
r 0.40456 0 1 tcp 1040 ------- 0 0.0 2.0 35 84
+ 0.40456 1 2 tcp 1040 ------- 0 0.0 2.0 35 84
- 0.40456 1 2 tcp 1040 ------- 0 0.0 2.0 35 84
r 0.406224 0 1 tcp 1040 ------- 0 0.0 2.0 36 85
+ 0.406224 1 2 tcp 1040 ------- 0 0.0 2.0 36 85
- 0.406224 1 2 tcp 1040 ------- 0 0.0 2.0 36 85
r 0.407888 0 1 tcp 1040 ------- 0 0.0 2.0 37 86
+ 0.407888 1 2 tcp 1040 ------- 0 0.0 2.0 37 86
- 0.407888 1 2 tcp 1040 ------- 0 0.0 2.0 37 86
r 0.409552 0 1 tcp 1040 ------- 0 0.0 2.0 38 87
+ 0.409552 1 2 tcp 1040 ------- 0 0.0 2.0 38 87
- 0.409552 1 2 tcp 1040 ------- 0 0.0 2.0 38 87
r 0.411216 0 1 tcp 1040 ------- 0 0.0 2.0 39 88
+ 0.411216 1 2 tcp 1040 ------- 0 0.0 2.0 39 88
- 0.411216 1 2 tcp 1040 ------- 0 0.0 2.0 39 88
r 0.41288 0 1 tcp 1040 ------- 0 0.0 2.0 40 89
+ 0.41288 1 2 tcp 1040 ------- 0 0.0 2.0 40 89
- 0.41288 1 2 tcp 1040 ------- 0 0.0 2.0 40 89
r 0.41456 1 2 tcp 1040 ------- 0 0.0 2.0 34 83
+ 0.41456 2 1 ack 40 ------- 0 2.0 0.0 34 90
- 0.41456 2 1 ack 40 ------- 0 2.0 0.0 34 90
r 0.416224 1 2 tcp 1040 ------- 0 0.0 2.0 35 84
+ 0.416224 2 1 ack 40 ------- 0 2.0 0.0 35 91
- 0.416224 2 1 ack 40 ------- 0 2.0 0.0 35 91
r 0.417888 1 2 tcp 1040 ------- 0 0.0 2.0 36 85
+ 0.417888 2 1 ack 40 ------- 0 2.0 0.0 36 92
- 0.417888 2 1 ack 40 ------- 0 2.0 0.0 36 92
r 0.419552 1 2 tcp 1040 ------- 0 0.0 2.0 37 86
+ 0.419552 2 1 ack 40 ------- 0 2.0 0.0 37 93
- 0.419552 2 1 ack 40 ------- 0 2.0 0.0 37 93
r 0.421216 1 2 tcp 1040 ------- 0 0.0 2.0 38 87
+ 0.421216 2 1 ack 40 ------- 0 2.0 0.0 38 94
- 0.421216 2 1 ack 40 ------- 0 2.0 0.0 38 94
r 0.42288 1 2 tcp 1040 ------- 0 0.0 2.0 39 88
+ 0.42288 2 1 ack 40 ------- 0 2.0 0.0 39 95
- 0.42288 2 1 ack 40 ------- 0 2.0 0.0 39 95
r 0.424544 1 2 tcp 1040 ------- 0 0.0 2.0 40 89
+ 0.424544 2 1 ack 40 ------- 0 2.0 0.0 40 96
- 0.424544 2 1 ack 40 ------- 0 2.0 0.0 40 96
r 0.424624 2 1 ack 40 ------- 0 2.0 0.0 34 90
+ 0.424624 1 0 ack 40 ------- 0 2.0 0.0 34 90
- 0.424624 1 0 ack 40 ------- 0 2.0 0.0 34 90
r 0.426288 2 1 ack 40 ------- 0 2.0 0.0 35 91
+ 0.426288 1 0 ack 40 ------- 0 2.0 0.0 35 91
- 0.426288 1 0 ack 40 ------- 0 2.0 0.0 35 91
r 0.427952 2 1 ack 40 ------- 0 2.0 0.0 36 92
+ 0.427952 1 0 ack 40 ------- 0 2.0 0.0 36 92
- 0.427952 1 0 ack 40 ------- 0 2.0 0.0 36 92
r 0.429616 2 1 ack 40 ------- 0 2.0 0.0 37 93
+ 0.429616 1 0 ack 40 ------- 0 2.0 0.0 37 93
- 0.429616 1 0 ack 40 ------- 0 2.0 0.0 37 93
r 0.43128 2 1 ack 40 ------- 0 2.0 0.0 38 94
+ 0.43128 1 0 ack 40 ------- 0 2.0 0.0 38 94
- 0.43128 1 0 ack 40 ------- 0 2.0 0.0 38 94
r 0.432944 2 1 ack 40 ------- 0 2.0 0.0 39 95
+ 0.432944 1 0 ack 40 ------- 0 2.0 0.0 39 95
- 0.432944 1 0 ack 40 ------- 0 2.0 0.0 39 95
r 0.434608 2 1 ack 40 ------- 0 2.0 0.0 40 96
+ 0.434608 1 0 ack 40 ------- 0 2.0 0.0 40 96
- 0.434608 1 0 ack 40 ------- 0 2.0 0.0 40 96
r 0.434688 1 0 ack 40 ------- 0 2.0 0.0 34 90
+ 0.434688 0 1 tcp 1040 ------- 0 0.0 2.0 41 97
- 0.434688 0 1 tcp 1040 ------- 0 0.0 2.0 41 97
r 0.436352 1 0 ack 40 ------- 0 2.0 0.0 35 91
+ 0.436352 0 1 tcp 1040 ------- 0 0.0 2.0 42 98
- 0.436352 0 1 tcp 1040 ------- 0 0.0 2.0 42 98
r 0.438016 1 0 ack 40 ------- 0 2.0 0.0 36 92
+ 0.438016 0 1 tcp 1040 ------- 0 0.0 2.0 43 99
- 0.438016 0 1 tcp 1040 ------- 0 0.0 2.0 43 99
r 0.43968 1 0 ack 40 ------- 0 2.0 0.0 37 93
+ 0.43968 0 1 tcp 1040 ------- 0 0.0 2.0 44 100
- 0.43968 0 1 tcp 1040 ------- 0 0.0 2.0 44 100
r 0.441344 1 0 ack 40 ------- 0 2.0 0.0 38 94
+ 0.441344 0 1 tcp 1040 ------- 0 0.0 2.0 45 101
- 0.441344 0 1 tcp 1040 ------- 0 0.0 2.0 45 101
r 0.443008 1 0 ack 40 ------- 0 2.0 0.0 39 95
+ 0.443008 0 1 tcp 1040 ------- 0 0.0 2.0 46 102
+ 0.443008 0 1 tcp 1040 ------- 0 0.0 2.0 47 103
- 0.443008 0 1 tcp 1040 ------- 0 0.0 2.0 46 102
r 0.444672 1 0 ack 40 ------- 0 2.0 0.0 40 96
+ 0.444672 0 1 tcp 1040 ------- 0 0.0 2.0 48 104
- 0.444672 0 1 tcp 1040 ------- 0 0.0 2.0 47 103
- 0.446336 0 1 tcp 1040 ------- 0 0.0 2.0 48 104
r 0.446352 0 1 tcp 1040 ------- 0 0.0 2.0 41 97
+ 0.446352 1 2 tcp 1040 ------- 0 0.0 2.0 41 97
- 0.446352 1 2 tcp 1040 ------- 0 0.0 2.0 41 97
r 0.448016 0 1 tcp 1040 ------- 0 0.0 2.0 42 98
+ 0.448016 1 2 tcp 1040 ------- 0 0.0 2.0 42 98
- 0.448016 1 2 tcp 1040 ------- 0 0.0 2.0 42 98
r 0.44968 0 1 tcp 1040 ------- 0 0.0 2.0 43 99
+ 0.44968 1 2 tcp 1040 ------- 0 0.0 2.0 43 99
- 0.44968 1 2 tcp 1040 ------- 0 0.0 2.0 43 99
r 0.451344 0 1 tcp 1040 ------- 0 0.0 2.0 44 100
+ 0.451344 1 2 tcp 1040 ------- 0 0.0 2.0 44 100
- 0.451344 1 2 tcp 1040 ------- 0 0.0 2.0 44 100
r 0.453008 0 1 tcp 1040 ------- 0 0.0 2.0 45 101
+ 0.453008 1 2 tcp 1040 ------- 0 0.0 2.0 45 101
- 0.453008 1 2 tcp 1040 ------- 0 0.0 2.0 45 101
r 0.454672 0 1 tcp 1040 ------- 0 0.0 2.0 46 102
+ 0.454672 1 2 tcp 1040 ------- 0 0.0 2.0 46 102
- 0.454672 1 2 tcp 1040 ------- 0 0.0 2.0 46 102
r 0.456336 0 1 tcp 1040 ------- 0 0.0 2.0 47 103
+ 0.456336 1 2 tcp 1040 ------- 0 0.0 2.0 47 103
- 0.456336 1 2 tcp 1040 ------- 0 0.0 2.0 47 103
r 0.458 0 1 tcp 1040 ------- 0 0.0 2.0 48 104
+ 0.458 1 2 tcp 1040 ------- 0 0.0 2.0 48 104
- 0.458 1 2 tcp 1040 ------- 0 0.0 2.0 48 104
r 0.458016 1 2 tcp 1040 ------- 0 0.0 2.0 41 97
+ 0.458016 2 1 ack 40 ------- 0 2.0 0.0 41 105
- 0.458016 2 1 ack 40 ------- 0 2.0 0.0 41 105
r 0.45968 1 2 tcp 1040 ------- 0 0.0 2.0 42 98
+ 0.45968 2 1 ack 40 ------- 0 2.0 0.0 42 106
- 0.45968 2 1 ack 40 ------- 0 2.0 0.0 42 106
r 0.461344 1 2 tcp 1040 ------- 0 0.0 2.0 43 99
+ 0.461344 2 1 ack 40 ------- 0 2.0 0.0 43 107
- 0.461344 2 1 ack 40 ------- 0 2.0 0.0 43 107
r 0.463008 1 2 tcp 1040 ------- 0 0.0 2.0 44 100
+ 0.463008 2 1 ack 40 ------- 0 2.0 0.0 44 108
- 0.463008 2 1 ack 40 ------- 0 2.0 0.0 44 108
r 0.464672 1 2 tcp 1040 ------- 0 0.0 2.0 45 101
+ 0.464672 2 1 ack 40 ------- 0 2.0 0.0 45 109
- 0.464672 2 1 ack 40 ------- 0 2.0 0.0 45 109
r 0.466336 1 2 tcp 1040 ------- 0 0.0 2.0 46 102
+ 0.466336 2 1 ack 40 ------- 0 2.0 0.0 46 110
- 0.466336 2 1 ack 40 ------- 0 2.0 0.0 46 110
r 0.468 1 2 tcp 1040 ------- 0 0.0 2.0 47 103
+ 0.468 2 1 ack 40 ------- 0 2.0 0.0 47 111
- 0.468 2 1 ack 40 ------- 0 2.0 0.0 47 111
r 0.46808 2 1 ack 40 ------- 0 2.0 0.0 41 105
+ 0.46808 1 0 ack 40 ------- 0 2.0 0.0 41 105
- 0.46808 1 0 ack 40 ------- 0 2.0 0.0 41 105
r 0.469664 1 2 tcp 1040 ------- 0 0.0 2.0 48 104
+ 0.469664 2 1 ack 40 ------- 0 2.0 0.0 48 112
- 0.469664 2 1 ack 40 ------- 0 2.0 0.0 48 112
r 0.469744 2 1 ack 40 ------- 0 2.0 0.0 42 106
+ 0.469744 1 0 ack 40 ------- 0 2.0 0.0 42 106
- 0.469744 1 0 ack 40 ------- 0 2.0 0.0 42 106
r 0.471408 2 1 ack 40 ------- 0 2.0 0.0 43 107
+ 0.471408 1 0 ack 40 ------- 0 2.0 0.0 43 107
- 0.471408 1 0 ack 40 ------- 0 2.0 0.0 43 107
r 0.473072 2 1 ack 40 ------- 0 2.0 0.0 44 108
+ 0.473072 1 0 ack 40 ------- 0 2.0 0.0 44 108
- 0.473072 1 0 ack 40 ------- 0 2.0 0.0 44 108
r 0.474736 2 1 ack 40 ------- 0 2.0 0.0 45 109
+ 0.474736 1 0 ack 40 ------- 0 2.0 0.0 45 109
- 0.474736 1 0 ack 40 ------- 0 2.0 0.0 45 109
r 0.4764 2 1 ack 40 ------- 0 2.0 0.0 46 110
+ 0.4764 1 0 ack 40 ------- 0 2.0 0.0 46 110
- 0.4764 1 0 ack 40 ------- 0 2.0 0.0 46 110