+ 0 0 1 tcp 40 ------- 0 0.0 2.0 0 0
- 0 0 1 tcp 40 ------- 0 0.0 2.0 0 0
r 0.01032 0 1 tcp 40 ------- 0 0.0 2.0 0 0
+ 0.01032 1 2 tcp 40 ------- 0 0.0 2.0 0 0
- 0.01032 1 2 tcp 40 ------- 0 0.0 2.0 0 0
r 0.02064 1 2 tcp 40 ------- 0 0.0 2.0 0 0
+ 0.02064 2 1 ack 40 ------- 0 2.0 0.0 0 1
- 0.02064 2 1 ack 40 ------- 0 2.0 0.0 0 1
r 0.03096 2 1 ack 40 ------- 0 2.0 0.0 0 1
+ 0.03096 1 0 ack 40 ------- 0 2.0 0.0 0 1
- 0.03096 1 0 ack 40 ------- 0 2.0 0.0 0 1
r 0.04128 1 0 ack 40 ------- 0 2.0 0.0 0 1
+ 0.04128 0 1 tcp 1040 ------- 0 0.0 2.0 1 2
- 0.04128 0 1 tcp 1040 ------- 0 0.0 2.0 1 2
+ 0.04128 0 1 tcp 1040 ------- 0 0.0 2.0 2 3
- 0.0496 0 1 tcp 1040 ------- 0 0.0 2.0 2 3
r 0.0596 0 1 tcp 1040 ------- 0 0.0 2.0 1 2
+ 0.0596 1 2 tcp 1040 ------- 0 0.0 2.0 1 2
- 0.0596 1 2 tcp 1040 ------- 0 0.0 2.0 1 2
r 0.06792 0 1 tcp 1040 ------- 0 0.0 2.0 2 3
+ 0.06792 1 2 tcp 1040 ------- 0 0.0 2.0 2 3
- 0.06792 1 2 tcp 1040 ------- 0 0.0 2.0 2 3
r 0.07792 1 2 tcp 1040 ------- 0 0.0 2.0 1 2
+ 0.07792 2 1 ack 40 ------- 0 2.0 0.0 1 4
- 0.07792 2 1 ack 40 ------- 0 2.0 0.0 1 4
r 0.08624 1 2 tcp 1040 ------- 0 0.0 2.0 2 3
+ 0.08624 2 1 ack 40 ------- 0 2.0 0.0 2 5
- 0.08624 2 1 ack 40 ------- 0 2.0 0.0 2 5
r 0.08824 2 1 ack 40 ------- 0 2.0 0.0 1 4
+ 0.08824 1 0 ack 40 ------- 0 2.0 0.0 1 4
- 0.08824 1 0 ack 40 ------- 0 2.0 0.0 1 4
r 0.09656 2 1 ack 40 ------- 0 2.0 0.0 2 5
+ 0.09656 1 0 ack 40 ------- 0 2.0 0.0 2 5
- 0.09656 1 0 ack 40 ------- 0 2.0 0.0 2 5
r 0.09856 1 0 ack 40 ------- 0 2.0 0.0 1 4
+ 0.09856 0 1 tcp 1040 ------- 0 0.0 2.0 3 6
- 0.09856 0 1 tcp 1040 ------- 0 0.0 2.0 3 6
+ 0.09856 0 1 tcp 1040 ------- 0 0.0 2.0 4 7
- 0.10688 0 1 tcp 1040 ------- 0 0.0 2.0 4 7
r 0.10688 1 0 ack 40 ------- 0 2.0 0.0 2 5
+ 0.10688 0 1 tcp 1040 ------- 0 0.0 2.0 5 8
+ 0.10688 0 1 tcp 1040 ------- 0 0.0 2.0 6 9
- 0.1152 0 1 tcp 1040 ------- 0 0.0 2.0 5 8
r 0.11688 0 1 tcp 1040 ------- 0 0.0 2.0 3 6
+ 0.11688 1 2 tcp 1040 ------- 0 0.0 2.0 3 6
- 0.11688 1 2 tcp 1040 ------- 0 0.0 2.0 3 6
- 0.12352 0 1 tcp 1040 ------- 0 0.0 2.0 6 9
r 0.1252 0 1 tcp 1040 ------- 0 0.0 2.0 4 7
+ 0.1252 1 2 tcp 1040 ------- 0 0.0 2.0 4 7
- 0.1252 1 2 tcp 1040 ------- 0 0.0 2.0 4 7
r 0.13352 0 1 tcp 1040 ------- 0 0.0 2.0 5 8
+ 0.13352 1 2 tcp 1040 ------- 0 0.0 2.0 5 8
- 0.13352 1 2 tcp 1040 ------- 0 0.0 2.0 5 8
r 0.1352 1 2 tcp 1040 ------- 0 0.0 2.0 3 6
+ 0.1352 2 1 ack 40 ------- 0 2.0 0.0 3 10
- 0.1352 2 1 ack 40 ------- 0 2.0 0.0 3 10
r 0.14184 0 1 tcp 1040 ------- 0 0.0 2.0 6 9
+ 0.14184 1 2 tcp 1040 ------- 0 0.0 2.0 6 9
- 0.14184 1 2 tcp 1040 ------- 0 0.0 2.0 6 9
r 0.14352 1 2 tcp 1040 ------- 0 0.0 2.0 4 7
+ 0.14352 2 1 ack 40 ------- 0 2.0 0.0 4 11
- 0.14352 2 1 ack 40 ------- 0 2.0 0.0 4 11
r 0.14552 2 1 ack 40 ------- 0 2.0 0.0 3 10
+ 0.14552 1 0 ack 40 ------- 0 2.0 0.0 3 10
- 0.14552 1 0 ack 40 ------- 0 2.0 0.0 3 10
r 0.15184 1 2 tcp 1040 ------- 0 0.0 2.0 5 8
+ 0.15184 2 1 ack 40 ------- 0 2.0 0.0 5 12
- 0.15184 2 1 ack 40 ------- 0 2.0 0.0 5 12
r 0.15384 2 1 ack 40 ------- 0 2.0 0.0 4 11
+ 0.15384 1 0 ack 40 ------- 0 2.0 0.0 4 11
- 0.15384 1 0 ack 40 ------- 0 2.0 0.0 4 11
r 0.15584 1 0 ack 40 ------- 0 2.0 0.0 3 10
+ 0.15584 0 1 tcp 1040 ------- 0 0.0 2.0 7 13
- 0.15584 0 1 tcp 1040 ------- 0 0.0 2.0 7 13
+ 0.15584 0 1 tcp 1040 ------- 0 0.0 2.0 8 14
r 0.16016 1 2 tcp 1040 ------- 0 0.0 2.0 6 9
+ 0.16016 2 1 ack 40 ------- 0 2.0 0.0 6 15
- 0.16016 2 1 ack 40 ------- 0 2.0 0.0 6 15
r 0.16216 2 1 ack 40 ------- 0 2.0 0.0 5 12
+ 0.16216 1 0 ack 40 ------- 0 2.0 0.0 5 12
- 0.16216 1 0 ack 40 ------- 0 2.0 0.0 5 12
- 0.16416 0 1 tcp 1040 ------- 0 0.0 2.0 8 14
r 0.16416 1 0 ack 40 ------- 0 2.0 0.0 4 11
+ 0.16416 0 1 tcp 1040 ------- 0 0.0 2.0 9 16
+ 0.16416 0 1 tcp 1040 ------- 0 0.0 2.0 10 17
r 0.17048 2 1 ack 40 ------- 0 2.0 0.0 6 15
+ 0.17048 1 0 ack 40 ------- 0 2.0 0.0 6 15
- 0.17048 1 0 ack 40 ------- 0 2.0 0.0 6 15
- 0.17248 0 1 tcp 1040 ------- 0 0.0 2.0 9 16
r 0.17248 1 0 ack 40 ------- 0 2.0 0.0 5 12
+ 0.17248 0 1 tcp 1040 ------- 0 0.0 2.0 11 18
+ 0.17248 0 1 tcp 1040 ------- 0 0.0 2.0 12 19
r 0.17416 0 1 tcp 1040 ------- 0 0.0 2.0 7 13
+ 0.17416 1 2 tcp 1040 ------- 0 0.0 2.0 7 13
- 0.17416 1 2 tcp 1040 ------- 0 0.0 2.0 7 13
- 0.1808 0 1 tcp 1040 ------- 0 0.0 2.0 10 17
r 0.1808 1 0 ack 40 ------- 0 2.0 0.0 6 15
+ 0.1808 0 1 tcp 1040 ------- 0 0.0 2.0 13 20
+ 0.1808 0 1 tcp 1040 ------- 0 0.0 2.0 14 21
r 0.18248 0 1 tcp 1040 ------- 0 0.0 2.0 8 14
+ 0.18248 1 2 tcp 1040 ------- 0 0.0 2.0 8 14
- 0.18248 1 2 tcp 1040 ------- 0 0.0 2.0 8 14
- 0.18912 0 1 tcp 1040 ------- 0 0.0 2.0 11 18
r 0.1908 0 1 tcp 1040 ------- 0 0.0 2.0 9 16
+ 0.1908 1 2 tcp 1040 ------- 0 0.0 2.0 9 16
- 0.1908 1 2 tcp 1040 ------- 0 0.0 2.0 9 16
r 0.19248 1 2 tcp 1040 ------- 0 0.0 2.0 7 13
+ 0.19248 2 1 ack 40 ------- 0 2.0 0.0 7 22
- 0.19248 2 1 ack 40 ------- 0 2.0 0.0 7 22
- 0.19744 0 1 tcp 1040 ------- 0 0.0 2.0 12 19
r 0.19912 0 1 tcp 1040 ------- 0 0.0 2.0 10 17
+ 0.19912 1 2 tcp 1040 ------- 0 0.0 2.0 10 17
- 0.19912 1 2 tcp 1040 ------- 0 0.0 2.0 10 17
r 0.2008 1 2 tcp 1040 ------- 0 0.0 2.0 8 14
+ 0.2008 2 1 ack 40 ------- 0 2.0 0.0 8 23
- 0.2008 2 1 ack 40 ------- 0 2.0 0.0 8 23
r 0.2028 2 1 ack 40 ------- 0 2.0 0.0 7 22
+ 0.2028 1 0 ack 40 ------- 0 2.0 0.0 7 22
- 0.2028 1 0 ack 40 ------- 0 2.0 0.0 7 22
- 0.20576 0 1 tcp 1040 ------- 0 0.0 2.0 13 20
r 0.20744 0 1 tcp 1040 ------- 0 0.0 2.0 11 18
+ 0.20744 1 2 tcp 1040 ------- 0 0.0 2.0 11 18
- 0.20744 1 2 tcp 1040 ------- 0 0.0 2.0 11 18
r 0.20912 1 2 tcp 1040 ------- 0 0.0 2.0 9 16
+ 0.20912 2 1 ack 40 ------- 0 2.0 0.0 9 24
- 0.20912 2 1 ack 40 ------- 0 2.0 0.0 9 24
r 0.21112 2 1 ack 40 ------- 0 2.0 0.0 8 23
+ 0.21112 1 0 ack 40 ------- 0 2.0 0.0 8 23
- 0.21112 1 0 ack 40 ------- 0 2.0 0.0 8 23
r 0.21312 1 0 ack 40 ------- 0 2.0 0.0 7 22
+ 0.21312 0 1 tcp 1040 ------- 0 0.0 2.0 15 25
+ 0.21312 0 1 tcp 1040 ------- 0 0.0 2.0 16 26
- 0.21408 0 1 tcp 1040 ------- 0 0.0 2.0 14 21
r 0.21576 0 1 tcp 1040 ------- 0 0.0 2.0 12 19
+ 0.21576 1 2 tcp 1040 ------- 0 0.0 2.0 12 19
- 0.21576 1 2 tcp 1040 ------- 0 0.0 2.0 12 19
r 0.21744 1 2 tcp 1040 ------- 0 0.0 2.0 10 17
+ 0.21744 2 1 ack 40 ------- 0 2.0 0.0 10 27
- 0.21744 2 1 ack 40 ------- 0 2.0 0.0 10 27
r 0.21944 2 1 ack 40 ------- 0 2.0 0.0 9 24
+ 0.21944 1 0 ack 40 ------- 0 2.0 0.0 9 24
- 0.21944 1 0 ack 40 ------- 0 2.0 0.0 9 24
r 0.22144 1 0 ack 40 ------- 0 2.0 0.0 8 23
+ 0.22144 0 1 tcp 1040 ------- 0 0.0 2.0 17 28
+ 0.22144 0 1 tcp 1040 ------- 0 0.0 2.0 18 29
- 0.2224 0 1 tcp 1040 ------- 0 0.0 2.0 15 25
r 0.22408 0 1 tcp 1040 ------- 0 0.0 2.0 13 20
+ 0.22408 1 2 tcp 1040 ------- 0 0.0 2.0 13 20
- 0.22408 1 2 tcp 1040 ------- 0 0.0 2.0 13 20
r 0.22576 1 2 tcp 1040 ------- 0 0.0 2.0 11 18
+ 0.22576 2 1 ack 40 ------- 0 2.0 0.0 11 30
- 0.22576 2 1 ack 40 ------- 0 2.0 0.0 11 30
r 0.22776 2 1 ack 40 ------- 0 2.0 0.0 10 27
+ 0.22776 1 0 ack 40 ------- 0 2.0 0.0 10 27
- 0.22776 1 0 ack 40 ------- 0 2.0 0.0 10 27
r 0.22976 1 0 ack 40 ------- 0 2.0 0.0 9 24
+ 0.22976 0 1 tcp 1040 ------- 0 0.0 2.0 19 31
+ 0.22976 0 1 tcp 1040 ------- 0 0.0 2.0 20 32
- 0.23072 0 1 tcp 1040 ------- 0 0.0 2.0 16 26
r 0.2324 0 1 tcp 1040 ------- 0 0.0 2.0 14 21
+ 0.2324 1 2 tcp 1040 ------- 0 0.0 2.0 14 21
- 0.2324 1 2 tcp 1040 ------- 0 0.0 2.0 14 21
r 0.23408 1 2 tcp 1040 ------- 0 0.0 2.0 12 19
+ 0.23408 2 1 ack 40 ------- 0 2.0 0.0 12 33
- 0.23408 2 1 ack 40 ------- 0 2.0 0.0 12 33
r 0.23608 2 1 ack 40 ------- 0 2.0 0.0 11 30
+ 0.23608 1 0 ack 40 ------- 0 2.0 0.0 11 30
- 0.23608 1 0 ack 40 ------- 0 2.0 0.0 11 30
r 0.23808 1 0 ack 40 ------- 0 2.0 0.0 10 27
+ 0.23808 0 1 tcp 1040 ------- 0 0.0 2.0 21 34
+ 0.23808 0 1 tcp 1040 ------- 0 0.0 2.0 22 35
- 0.23904 0 1 tcp 1040 ------- 0 0.0 2.0 17 28
r 0.24072 0 1 tcp 1040 ------- 0 0.0 2.0 15 25
+ 0.24072 1 2 tcp 1040 ------- 0 0.0 2.0 15 25
- 0.24072 1 2 tcp 1040 ------- 0 0.0 2.0 15 25
r 0.2424 1 2 tcp 1040 ------- 0 0.0 2.0 13 20
+ 0.2424 2 1 ack 40 ------- 0 2.0 0.0 13 36
- 0.2424 2 1 ack 40 ------- 0 2.0 0.0 13 36
r 0.2444 2 1 ack 40 ------- 0 2.0 0.0 12 33
+ 0.2444 1 0 ack 40 ------- 0 2.0 0.0 12 33
- 0.2444 1 0 ack 40 ------- 0 2.0 0.0 12 33
r 0.2464 1 0 ack 40 ------- 0 2.0 0.0 11 30
+ 0.2464 0 1 tcp 1040 ------- 0 0.0 2.0 23 37
+ 0.2464 0 1 tcp 1040 ------- 0 0.0 2.0 24 38
- 0.24736 0 1 tcp 1040 ------- 0 0.0 2.0 18 29
r 0.24904 0 1 tcp 1040 ------- 0 0.0 2.0 16 26
+ 0.24904 1 2 tcp 1040 ------- 0 0.0 2.0 16 26
- 0.24904 1 2 tcp 1040 ------- 0 0.0 2.0 16 26
r 0.25072 1 2 tcp 1040 ------- 0 0.0 2.0 14 21
+ 0.25072 2 1 ack 40 ------- 0 2.0 0.0 14 39
- 0.25072 2 1 ack 40 ------- 0 2.0 0.0 14 39
r 0.25272 2 1 ack 40 ------- 0 2.0 0.0 13 36
+ 0.25272 1 0 ack 40 ------- 0 2.0 0.0 13 36
- 0.25272 1 0 ack 40 ------- 0 2.0 0.0 13 36
r 0.25472 1 0 ack 40 ------- 0 2.0 0.0 12 33
+ 0.25472 0 1 tcp 1040 ------- 0 0.0 2.0 25 40
+ 0.25472 0 1 tcp 1040 ------- 0 0.0 2.0 26 41
- 0.25568 0 1 tcp 1040 ------- 0 0.0 2.0 19 31
r 0.25736 0 1 tcp 1040 ------- 0 0.0 2.0 17 28
+ 0.25736 1 2 tcp 1040 ------- 0 0.0 2.0 17 28
- 0.25736 1 2 tcp 1040 ------- 0 0.0 2.0 17 28
r 0.25904 1 2 tcp 1040 ------- 0 0.0 2.0 15 25
+ 0.25904 2 1 ack 40 ------- 0 2.0 0.0 15 42
- 0.25904 2 1 ack 40 ------- 0 2.0 0.0 15 42
r 0.26104 2 1 ack 40 ------- 0 2.0 0.0 14 39
+ 0.26104 1 0 ack 40 ------- 0 2.0 0.0 14 39
- 0.26104 1 0 ack 40 ------- 0 2.0 0.0 14 39
r 0.26304 1 0 ack 40 ------- 0 2.0 0.0 13 36
+ 0.26304 0 1 tcp 1040 ------- 0 0.0 2.0 27 43
+ 0.26304 0 1 tcp 1040 ------- 0 0.0 2.0 28 44
- 0.264 0 1 tcp 1040 ------- 0 0.0 2.0 20 32
r 0.26568 0 1 tcp 1040 ------- 0 0.0 2.0 18 29
+ 0.26568 1 2 tcp 1040 ------- 0 0.0 2.0 18 29
- 0.26568 1 2 tcp 1040 ------- 0 0.0 2.0 18 29
r 0.26736 1 2 tcp 1040 ------- 0 0.0 2.0 16 26
+ 0.26736 2 1 ack 40 ------- 0 2.0 0.0 16 45
- 0.26736 2 1 ack 40 ------- 0 2.0 0.0 16 45
r 0.26936 2 1 ack 40 ------- 0 2.0 0.0 15 42
+ 0.26936 1 0 ack 40 ------- 0 2.0 0.0 15 42
- 0.26936 1 0 ack 40 ------- 0 2.0 0.0 15 42
r 0.27136 1 0 ack 40 ------- 0 2.0 0.0 14 39
+ 0.27136 0 1 tcp 1040 ------- 0 0.0 2.0 29 46
+ 0.27136 0 1 tcp 1040 ------- 0 0.0 2.0 30 47
d 0.27136 0 1 tcp 1040 ------- 0 0.0 2.0 30 47
- 0.27232 0 1 tcp 1040 ------- 0 0.0 2.0 21 34
r 0.274 0 1 tcp 1040 ------- 0 0.0 2.0 19 31
+ 0.274 1 2 tcp 1040 ------- 0 0.0 2.0 19 31
- 0.274 1 2 tcp 1040 ------- 0 0.0 2.0 19 31
r 0.27568 1 2 tcp 1040 ------- 0 0.0 2.0 17 28
+ 0.27568 2 1 ack 40 ------- 0 2.0 0.0 17 48
- 0.27568 2 1 ack 40 ------- 0 2.0 0.0 17 48
r 0.27768 2 1 ack 40 ------- 0 2.0 0.0 16 45
+ 0.27768 1 0 ack 40 ------- 0 2.0 0.0 16 45
- 0.27768 1 0 ack 40 ------- 0 2.0 0.0 16 45
r 0.27968 1 0 ack 40 ------- 0 2.0 0.0 15 42
+ 0.27968 0 1 tcp 1040 ------- 0 0.0 2.0 31 49
+ 0.27968 0 1 tcp 1040 ------- 0 0.0 2.0 32 50
d 0.27968 0 1 tcp 1040 ------- 0 0.0 2.0 32 50
- 0.28064 0 1 tcp 1040 ------- 0 0.0 2.0 22 35
r 0.28232 0 1 tcp 1040 ------- 0 0.0 2.0 20 32
+ 0.28232 1 2 tcp 1040 ------- 0 0.0 2.0 20 32
- 0.28232 1 2 tcp 1040 ------- 0 0.0 2.0 20 32
r 0.284 1 2 tcp 1040 ------- 0 0.0 2.0 18 29
+ 0.284 2 1 ack 40 ------- 0 2.0 0.0 18 51
- 0.284 2 1 ack 40 ------- 0 2.0 0.0 18 51
r 0.286 2 1 ack 40 ------- 0 2.0 0.0 17 48
+ 0.286 1 0 ack 40 ------- 0 2.0 0.0 17 48
- 0.286 1 0 ack 40 ------- 0 2.0 0.0 17 48
r 0.288 1 0 ack 40 ------- 0 2.0 0.0 16 45
+ 0.288 0 1 tcp 1040 ------- 0 0.0 2.0 33 52
+ 0.288 0 1 tcp 1040 ------- 0 0.0 2.0 34 53
d 0.288 0 1 tcp 1040 ------- 0 0.0 2.0 34 53
- 0.28896 0 1 tcp 1040 ------- 0 0.0 2.0 23 37
r 0.29064 0 1 tcp 1040 ------- 0 0.0 2.0 21 34
+ 0.29064 1 2 tcp 1040 ------- 0 0.0 2.0 21 34
- 0.29064 1 2 tcp 1040 ------- 0 0.0 2.0 21 34
r 0.29232 1 2 tcp 1040 ------- 0 0.0 2.0 19 31
+ 0.29232 2 1 ack 40 ------- 0 2.0 0.0 19 54
- 0.29232 2 1 ack 40 ------- 0 2.0 0.0 19 54
r 0.29432 2 1 ack 40 ------- 0 2.0 0.0 18 51
+ 0.29432 1 0 ack 40 ------- 0 2.0 0.0 18 51
- 0.29432 1 0 ack 40 ------- 0 2.0 0.0 18 51
r 0.29632 1 0 ack 40 ------- 0 2.0 0.0 17 48
+ 0.29632 0 1 tcp 1040 ------- 0 0.0 2.0 35 55
+ 0.29632 0 1 tcp 1040 ------- 0 0.0 2.0 36 56
d 0.29632 0 1 tcp 1040 ------- 0 0.0 2.0 36 56
- 0.29728 0 1 tcp 1040 ------- 0 0.0 2.0 24 38
r 0.29896 0 1 tcp 1040 ------- 0 0.0 2.0 22 35
+ 0.29896 1 2 tcp 1040 ------- 0 0.0 2.0 22 35
- 0.29896 1 2 tcp 1040 ------- 0 0.0 2.0 22 35
r 0.30064 1 2 tcp 1040 ------- 0 0.0 2.0 20 32
+ 0.30064 2 1 ack 40 ------- 0 2.0 0.0 20 57
- 0.30064 2 1 ack 40 ------- 0 2.0 0.0 20 57
r 0.30264 2 1 ack 40 ------- 0 2.0 0.0 19 54
+ 0.30264 1 0 ack 40 ------- 0 2.0 0.0 19 54
- 0.30264 1 0 ack 40 ------- 0 2.0 0.0 19 54
r 0.30464 1 0 ack 40 ------- 0 2.0 0.0 18 51
+ 0.30464 0 1 tcp 1040 ------- 0 0.0 2.0 37 58
+ 0.30464 0 1 tcp 1040 ------- 0 0.0 2.0 38 59
d 0.30464 0 1 tcp 1040 ------- 0 0.0 2.0 38 59
- 0.3056 0 1 tcp 1040 ------- 0 0.0 2.0 25 40
r 0.30728 0 1 tcp 1040 ------- 0 0.0 2.0 23 37
+ 0.30728 1 2 tcp 1040 ------- 0 0.0 2.0 23 37
- 0.30728 1 2 tcp 1040 ------- 0 0.0 2.0 23 37
r 0.30896 1 2 tcp 1040 ------- 0 0.0 2.0 21 34
+ 0.30896 2 1 ack 40 ------- 0 2.0 0.0 21 60
- 0.30896 2 1 ack 40 ------- 0 2.0 0.0 21 60
r 0.31096 2 1 ack 40 ------- 0 2.0 0.0 20 57
+ 0.31096 1 0 ack 40 ------- 0 2.0 0.0 20 57
- 0.31096 1 0 ack 40 ------- 0 2.0 0.0 20 57
r 0.31296 1 0 ack 40 ------- 0 2.0 0.0 19 54
+ 0.31296 0 1 tcp 1040 ------- 0 0.0 2.0 39 61
- 0.31392 0 1 tcp 1040 ------- 0 0.0 2.0 26 41
r 0.3156 0 1 tcp 1040 ------- 0 0.0 2.0 24 38
+ 0.3156 1 2 tcp 1040 ------- 0 0.0 2.0 24 38
- 0.3156 1 2 tcp 1040 ------- 0 0.0 2.0 24 38
r 0.31728 1 2 tcp 1040 ------- 0 0.0 2.0 22 35
+ 0.31728 2 1 ack 40 ------- 0 2.0 0.0 22 62
- 0.31728 2 1 ack 40 ------- 0 2.0 0.0 22 62
r 0.31928 2 1 ack 40 ------- 0 2.0 0.0 21 60
+ 0.31928 1 0 ack 40 ------- 0 2.0 0.0 21 60
- 0.31928 1 0 ack 40 ------- 0 2.0 0.0 21 60
r 0.32128 1 0 ack 40 ------- 0 2.0 0.0 20 57
+ 0.32128 0 1 tcp 1040 ------- 0 0.0 2.0 40 63
- 0.32224 0 1 tcp 1040 ------- 0 0.0 2.0 27 43
r 0.32392 0 1 tcp 1040 ------- 0 0.0 2.0 25 40
+ 0.32392 1 2 tcp 1040 ------- 0 0.0 2.0 25 40
- 0.32392 1 2 tcp 1040 ------- 0 0.0 2.0 25 40
r 0.3256 1 2 tcp 1040 ------- 0 0.0 2.0 23 37
+ 0.3256 2 1 ack 40 ------- 0 2.0 0.0 23 64
- 0.3256 2 1 ack 40 ------- 0 2.0 0.0 23 64
r 0.3276 2 1 ack 40 ------- 0 2.0 0.0 22 62
+ 0.3276 1 0 ack 40 ------- 0 2.0 0.0 22 62
- 0.3276 1 0 ack 40 ------- 0 2.0 0.0 22 62
r 0.3296 1 0 ack 40 ------- 0 2.0 0.0 21 60
+ 0.3296 0 1 tcp 1040 ------- 0 0.0 2.0 41 65
- 0.33056 0 1 tcp 1040 ------- 0 0.0 2.0 28 44
r 0.33224 0 1 tcp 1040 ------- 0 0.0 2.0 26 41
+ 0.33224 1 2 tcp 1040 ------- 0 0.0 2.0 26 41
- 0.33224 1 2 tcp 1040 ------- 0 0.0 2.0 26 41
r 0.33392 1 2 tcp 1040 ------- 0 0.0 2.0 24 38
+ 0.33392 2 1 ack 40 ------- 0 2.0 0.0 24 66
- 0.33392 2 1 ack 40 ------- 0 2.0 0.0 24 66
r 0.33592 2 1 ack 40 ------- 0 2.0 0.0 23 64
+ 0.33592 1 0 ack 40 ------- 0 2.0 0.0 23 64
- 0.33592 1 0 ack 40 ------- 0 2.0 0.0 23 64
r 0.33792 1 0 ack 40 ------- 0 2.0 0.0 22 62
+ 0.33792 0 1 tcp 1040 ------- 0 0.0 2.0 42 67
- 0.33888 0 1 tcp 1040 ------- 0 0.0 2.0 29 46
r 0.34056 0 1 tcp 1040 ------- 0 0.0 2.0 27 43
+ 0.34056 1 2 tcp 1040 ------- 0 0.0 2.0 27 43
- 0.34056 1 2 tcp 1040 ------- 0 0.0 2.0 27 43
r 0.34224 1 2 tcp 1040 ------- 0 0.0 2.0 25 40
+ 0.34224 2 1 ack 40 ------- 0 2.0 0.0 25 68
- 0.34224 2 1 ack 40 ------- 0 2.0 0.0 25 68
r 0.34424 2 1 ack 40 ------- 0 2.0 0.0 24 66
+ 0.34424 1 0 ack 40 ------- 0 2.0 0.0 24 66
- 0.34424 1 0 ack 40 ------- 0 2.0 0.0 24 66
r 0.34624 1 0 ack 40 ------- 0 2.0 0.0 23 64
+ 0.34624 0 1 tcp 1040 ------- 0 0.0 2.0 43 69
- 0.3472 0 1 tcp 1040 ------- 0 0.0 2.0 31 49
r 0.34888 0 1 tcp 1040 ------- 0 0.0 2.0 28 44
+ 0.34888 1 2 tcp 1040 ------- 0 0.0 2.0 28 44
- 0.34888 1 2 tcp 1040 ------- 0 0.0 2.0 28 44
r 0.35056 1 2 tcp 1040 ------- 0 0.0 2.0 26 41
+ 0.35056 2 1 ack 40 ------- 0 2.0 0.0 26 70
- 0.35056 2 1 ack 40 ------- 0 2.0 0.0 26 70
r 0.35256 2 1 ack 40 ------- 0 2.0 0.0 25 68
+ 0.35256 1 0 ack 40 ------- 0 2.0 0.0 25 68
- 0.35256 1 0 ack 40 ------- 0 2.0 0.0 25 68
r 0.35456 1 0 ack 40 ------- 0 2.0 0.0 24 66
+ 0.35456 0 1 tcp 1040 ------- 0 0.0 2.0 44 71
- 0.35552 0 1 tcp 1040 ------- 0 0.0 2.0 33 52
r 0.3572 0 1 tcp 1040 ------- 0 0.0 2.0 29 46
+ 0.3572 1 2 tcp 1040 ------- 0 0.0 2.0 29 46
- 0.3572 1 2 tcp 1040 ------- 0 0.0 2.0 29 46
r 0.35888 1 2 tcp 1040 ------- 0 0.0 2.0 27 43
+ 0.35888 2 1 ack 40 ------- 0 2.0 0.0 27 72
- 0.35888 2 1 ack 40 ------- 0 2.0 0.0 27 72
r 0.36088 2 1 ack 40 ------- 0 2.0 0.0 26 70
+ 0.36088 1 0 ack 40 ------- 0 2.0 0.0 26 70
- 0.36088 1 0 ack 40 ------- 0 2.0 0.0 26 70
r 0.36288 1 0 ack 40 ------- 0 2.0 0.0 25 68
+ 0.36288 0 1 tcp 1040 ------- 0 0.0 2.0 45 73
- 0.36384 0 1 tcp 1040 ------- 0 0.0 2.0 35 55
r 0.36552 0 1 tcp 1040 ------- 0 0.0 2.0 31 49
+ 0.36552 1 2 tcp 1040 ------- 0 0.0 2.0 31 49
- 0.36552 1 2 tcp 1040 ------- 0 0.0 2.0 31 49
r 0.3672 1 2 tcp 1040 ------- 0 0.0 2.0 28 44
+ 0.3672 2 1 ack 40 ------- 0 2.0 0.0 28 74
- 0.3672 2 1 ack 40 ------- 0 2.0 0.0 28 74
r 0.3692 2 1 ack 40 ------- 0 2.0 0.0 27 72
+ 0.3692 1 0 ack 40 ------- 0 2.0 0.0 27 72
- 0.3692 1 0 ack 40 ------- 0 2.0 0.0 27 72
r 0.3712 1 0 ack 40 ------- 0 2.0 0.0 26 70
+ 0.3712 0 1 tcp 1040 ------- 0 0.0 2.0 46 75
- 0.37216 0 1 tcp 1040 ------- 0 0.0 2.0 37 58
r 0.37384 0 1 tcp 1040 ------- 0 0.0 2.0 33 52
+ 0.37384 1 2 tcp 1040 ------- 0 0.0 2.0 33 52
- 0.37384 1 2 tcp 1040 ------- 0 0.0 2.0 33 52
r 0.37552 1 2 tcp 1040 ------- 0 0.0 2.0 29 46
+ 0.37552 2 1 ack 40 ------- 0 2.0 0.0 29 76
- 0.37552 2 1 ack 40 ------- 0 2.0 0.0 29 76
r 0.37752 2 1 ack 40 ------- 0 2.0 0.0 28 74
+ 0.37752 1 0 ack 40 ------- 0 2.0 0.0 28 74
- 0.37752 1 0 ack 40 ------- 0 2.0 0.0 28 74
r 0.37952 1 0 ack 40 ------- 0 2.0 0.0 27 72
+ 0.37952 0 1 tcp 1040 ------- 0 0.0 2.0 47 77
- 0.38048 0 1 tcp 1040 ------- 0 0.0 2.0 39 61
r 0.38216 0 1 tcp 1040 ------- 0 0.0 2.0 35 55
+ 0.38216 1 2 tcp 1040 ------- 0 0.0 2.0 35 55
- 0.38216 1 2 tcp 1040 ------- 0 0.0 2.0 35 55
r 0.38384 1 2 tcp 1040 ------- 0 0.0 2.0 31 49
+ 0.38384 2 1 ack 40 ------- 0 2.0 0.0 29 78
- 0.38384 2 1 ack 40 ------- 0 2.0 0.0 29 78
r 0.38584 2 1 ack 40 ------- 0 2.0 0.0 29 76
+ 0.38584 1 0 ack 40 ------- 0 2.0 0.0 29 76
- 0.38584 1 0 ack 40 ------- 0 2.0 0.0 29 76
r 0.38784 1 0 ack 40 ------- 0 2.0 0.0 28 74
+ 0.38784 0 1 tcp 1040 ------- 0 0.0 2.0 48 79
- 0.3888 0 1 tcp 1040 ------- 0 0.0 2.0 40 63
r 0.39048 0 1 tcp 1040 ------- 0 0.0 2.0 37 58
+ 0.39048 1 2 tcp 1040 ------- 0 0.0 2.0 37 58
- 0.39048 1 2 tcp 1040 ------- 0 0.0 2.0 37 58
r 0.39216 1 2 tcp 1040 ------- 0 0.0 2.0 33 52
+ 0.39216 2 1 ack 40 ------- 0 2.0 0.0 29 80
- 0.39216 2 1 ack 40 ------- 0 2.0 0.0 29 80
r 0.39416 2 1 ack 40 ------- 0 2.0 0.0 29 78
+ 0.39416 1 0 ack 40 ------- 0 2.0 0.0 29 78
- 0.39416 1 0 ack 40 ------- 0 2.0 0.0 29 78
r 0.39616 1 0 ack 40 ------- 0 2.0 0.0 29 76
+ 0.39616 0 1 tcp 1040 ------- 0 0.0 2.0 49 81
- 0.39712 0 1 tcp 1040 ------- 0 0.0 2.0 41 65
r 0.3988 0 1 tcp 1040 ------- 0 0.0 2.0 39 61
+ 0.3988 1 2 tcp 1040 ------- 0 0.0 2.0 39 61
- 0.3988 1 2 tcp 1040 ------- 0 0.0 2.0 39 61
r 0.40048 1 2 tcp 1040 ------- 0 0.0 2.0 35 55
+ 0.40048 2 1 ack 40 ------- 0 2.0 0.0 29 82
- 0.40048 2 1 ack 40 ------- 0 2.0 0.0 29 82
r 0.40248 2 1 ack 40 ------- 0 2.0 0.0 29 80
+ 0.40248 1 0 ack 40 ------- 0 2.0 0.0 29 80
- 0.40248 1 0 ack 40 ------- 0 2.0 0.0 29 80
r 0.40448 1 0 ack 40 ------- 0 2.0 0.0 29 78
- 0.40544 0 1 tcp 1040 ------- 0 0.0 2.0 42 67
r 0.40712 0 1 tcp 1040 ------- 0 0.0 2.0 40 63
+ 0.40712 1 2 tcp 1040 ------- 0 0.0 2.0 40 63
- 0.40712 1 2 tcp 1040 ------- 0 0.0 2.0 40 63
r 0.4088 1 2 tcp 1040 ------- 0 0.0 2.0 37 58
+ 0.4088 2 1 ack 40 ------- 0 2.0 0.0 29 83
- 0.4088 2 1 ack 40 ------- 0 2.0 0.0 29 83
r 0.4108 2 1 ack 40 ------- 0 2.0 0.0 29 82
+ 0.4108 1 0 ack 40 ------- 0 2.0 0.0 29 82
- 0.4108 1 0 ack 40 ------- 0 2.0 0.0 29 82
r 0.4128 1 0 ack 40 ------- 0 2.0 0.0 29 80
- 0.41376 0 1 tcp 1040 ------- 0 0.0 2.0 43 69
r 0.41544 0 1 tcp 1040 ------- 0 0.0 2.0 41 65
+ 0.41544 1 2 tcp 1040 ------- 0 0.0 2.0 41 65
- 0.41544 1 2 tcp 1040 ------- 0 0.0 2.0 41 65
r 0.41712 1 2 tcp 1040 ------- 0 0.0 2.0 39 61
+ 0.41712 2 1 ack 40 ------- 0 2.0 0.0 29 84
- 0.41712 2 1 ack 40 ------- 0 2.0 0.0 29 84
r 0.41912 2 1 ack 40 ------- 0 2.0 0.0 29 83
+ 0.41912 1 0 ack 40 ------- 0 2.0 0.0 29 83
- 0.41912 1 0 ack 40 ------- 0 2.0 0.0 29 83
r 0.42112 1 0 ack 40 ------- 0 2.0 0.0 29 82
+ 0.42112 0 1 tcp 1040 ---A--- 0 0.0 2.0 30 85
- 0.42208 0 1 tcp 1040 ------- 0 0.0 2.0 44 71
r 0.42376 0 1 tcp 1040 ------- 0 0.0 2.0 42 67
+ 0.42376 1 2 tcp 1040 ------- 0 0.0 2.0 42 67
- 0.42376 1 2 tcp 1040 ------- 0 0.0 2.0 42 67
r 0.42544 1 2 tcp 1040 ------- 0 0.0 2.0 40 63
+ 0.42544 2 1 ack 40 ------- 0 2.0 0.0 29 86
- 0.42544 2 1 ack 40 ------- 0 2.0 0.0 29 86
r 0.42744 2 1 ack 40 ------- 0 2.0 0.0 29 84
+ 0.42744 1 0 ack 40 ------- 0 2.0 0.0 29 84
- 0.42744 1 0 ack 40 ------- 0 2.0 0.0 29 84
r 0.42944 1 0 ack 40 ------- 0 2.0 0.0 29 83
- 0.4304 0 1 tcp 1040 ------- 0 0.0 2.0 45 73
r 0.43208 0 1 tcp 1040 ------- 0 0.0 2.0 43 69
+ 0.43208 1 2 tcp 1040 ------- 0 0.0 2.0 43 69
- 0.43208 1 2 tcp 1040 ------- 0 0.0 2.0 43 69
r 0.43376 1 2 tcp 1040 ------- 0 0.0 2.0 41 65
+ 0.43376 2 1 ack 40 ------- 0 2.0 0.0 29 87
- 0.43376 2 1 ack 40 ------- 0 2.0 0.0 29 87
r 0.43576 2 1 ack 40 ------- 0 2.0 0.0 29 86
+ 0.43576 1 0 ack 40 ------- 0 2.0 0.0 29 86
- 0.43576 1 0 ack 40 ------- 0 2.0 0.0 29 86
r 0.43776 1 0 ack 40 ------- 0 2.0 0.0 29 84
- 0.43872 0 1 tcp 1040 ------- 0 0.0 2.0 46 75
r 0.4404 0 1 tcp 1040 ------- 0 0.0 2.0 44 71
+ 0.4404 1 2 tcp 1040 ------- 0 0.0 2.0 44 71
- 0.4404 1 2 tcp 1040 ------- 0 0.0 2.0 44 71
r 0.44208 1 2 tcp 1040 ------- 0 0.0 2.0 42 67
+ 0.44208 2 1 ack 40 ------- 0 2.0 0.0 29 88
- 0.44208 2 1 ack 40 ------- 0 2.0 0.0 29 88
r 0.44408 2 1 ack 40 ------- 0 2.0 0.0 29 87
+ 0.44408 1 0 ack 40 ------- 0 2.0 0.0 29 87
- 0.44408 1 0 ack 40 ------- 0 2.0 0.0 29 87
r 0.44608 1 0 ack 40 ------- 0 2.0 0.0 29 86
- 0.44704 0 1 tcp 1040 ------- 0 0.0 2.0 47 77
r 0.44872 0 1 tcp 1040 ------- 0 0.0 2.0 45 73
+ 0.44872 1 2 tcp 1040 ------- 0 0.0 2.0 45 73
- 0.44872 1 2 tcp 1040 ------- 0 0.0 2.0 45 73
r 0.4504 1 2 tcp 1040 ------- 0 0.0 2.0 43 69
+ 0.4504 2 1 ack 40 ------- 0 2.0 0.0 29 89
- 0.4504 2 1 ack 40 ------- 0 2.0 0.0 29 89
r 0.4524 2 1 ack 40 ------- 0 2.0 0.0 29 88
+ 0.4524 1 0 ack 40 ------- 0 2.0 0.0 29 88
- 0.4524 1 0 ack 40 ------- 0 2.0 0.0 29 88
r 0.4544 1 0 ack 40 ------- 0 2.0 0.0 29 87
- 0.45536 0 1 tcp 1040 ------- 0 0.0 2.0 48 79
r 0.45704 0 1 tcp 1040 ------- 0 0.0 2.0 46 75
+ 0.45704 1 2 tcp 1040 ------- 0 0.0 2.0 46 75
- 0.45704 1 2 tcp 1040 ------- 0 0.0 2.0 46 75
r 0.45872 1 2 tcp 1040 ------- 0 0.0 2.0 44 71
+ 0.45872 2 1 ack 40 ------- 0 2.0 0.0 29 90
- 0.45872 2 1 ack 40 ------- 0 2.0 0.0 29 90
r 0.46072 2 1 ack 40 ------- 0 2.0 0.0 29 89
+ 0.46072 1 0 ack 40 ------- 0 2.0 0.0 29 89
- 0.46072 1 0 ack 40 ------- 0 2.0 0.0 29 89
r 0.46272 1 0 ack 40 ------- 0 2.0 0.0 29 88
- 0.46368 0 1 tcp 1040 ------- 0 0.0 2.0 49 81
r 0.46536 0 1 tcp 1040 ------- 0 0.0 2.0 47 77
+ 0.46536 1 2 tcp 1040 ------- 0 0.0 2.0 47 77
- 0.46536 1 2 tcp 1040 ------- 0 0.0 2.0 47 77
r 0.46704 1 2 tcp 1040 ------- 0 0.0 2.0 45 73
+ 0.46704 2 1 ack 40 ------- 0 2.0 0.0 29 91
- 0.46704 2 1 ack 40 ------- 0 2.0 0.0 29 91
r 0.46904 2 1 ack 40 ------- 0 2.0 0.0 29 90
+ 0.46904 1 0 ack 40 ------- 0 2.0 0.0 29 90
- 0.46904 1 0 ack 40 ------- 0 2.0 0.0 29 90
r 0.47104 1 0 ack 40 ------- 0 2.0 0.0 29 89
- 0.472 0 1 tcp 1040 ---A--- 0 0.0 2.0 30 85
r 0.47368 0 1 tcp 1040 ------- 0 0.0 2.0 48 79
+ 0.47368 1 2 tcp 1040 ------- 0 0.0 2.0 48 79
- 0.47368 1 2 tcp 1040 ------- 0 0.0 2.0 48 79
r 0.47536 1 2 tcp 1040 ------- 0 0.0 2.0 46 75
+ 0.47536 2 1 ack 40 ------- 0 2.0 0.0 29 92
- 0.47536 2 1 ack 40 ------- 0 2.0 0.0 29 92
r 0.47736 2 1 ack 40 ------- 0 2.0 0.0 29 91
+ 0.47736 1 0 ack 40 ------- 0 2.0 0.0 29 91
- 0.47736 1 0 ack 40 ------- 0 2.0 0.0 29 91
r 0.47936 1 0 ack 40 ------- 0 2.0 0.0 29 90
r 0.482 0 1 tcp 1040 ------- 0 0.0 2.0 49 81
+ 0.482 1 2 tcp 1040 ------- 0 0.0 2.0 49 81
- 0.482 1 2 tcp 1040 ------- 0 0.0 2.0 49 81
r 0.48368 1 2 tcp 1040 ------- 0 0.0 2.0 47 77
+ 0.48368 2 1 ack 40 ------- 0 2.0 0.0 29 93
- 0.48368 2 1 ack 40 ------- 0 2.0 0.0 29 93
r 0.48568 2 1 ack 40 ------- 0 2.0 0.0 29 92
+ 0.48568 1 0 ack 40 ------- 0 2.0 0.0 29 92
- 0.48568 1 0 ack 40 ------- 0 2.0 0.0 29 92
r 0.48768 1 0 ack 40 ------- 0 2.0 0.0 29 91
r 0.49032 0 1 tcp 1040 ---A--- 0 0.0 2.0 30 85
+ 0.49032 1 2 tcp 1040 ---A--- 0 0.0 2.0 30 85
- 0.49032 1 2 tcp 1040 ---A--- 0 0.0 2.0 30 85
r 0.492 1 2 tcp 1040 ------- 0 0.0 2.0 48 79
+ 0.492 2 1 ack 40 ------- 0 2.0 0.0 29 94
- 0.492 2 1 ack 40 ------- 0 2.0 0.0 29 94
r 0.494 2 1 ack 40 ------- 0 2.0 0.0 29 93
+ 0.494 1 0 ack 40 ------- 0 2.0 0.0 29 93
- 0.494 1 0 ack 40 ------- 0 2.0 0.0 29 93
r 0.496 1 0 ack 40 ------- 0 2.0 0.0 29 92
r 0.50032 1 2 tcp 1040 ------- 0 0.0 2.0 49 81
+ 0.50032 2 1 ack 40 ------- 0 2.0 0.0 29 95
- 0.50032 2 1 ack 40 ------- 0 2.0 0.0 29 95
r 0.50232 2 1 ack 40 ------- 0 2.0 0.0 29 94
+ 0.50232 1 0 ack 40 ------- 0 2.0 0.0 29 94
- 0.50232 1 0 ack 40 ------- 0 2.0 0.0 29 94
r 0.50432 1 0 ack 40 ------- 0 2.0 0.0 29 93
r 0.50864 1 2 tcp 1040 ---A--- 0 0.0 2.0 30 85
+ 0.50864 2 1 ack 40 ------- 0 2.0 0.0 31 96
- 0.50864 2 1 ack 40 ------- 0 2.0 0.0 31 96
r 0.51064 2 1 ack 40 ------- 0 2.0 0.0 29 95
+ 0.51064 1 0 ack 40 ------- 0 2.0 0.0 29 95
- 0.51064 1 0 ack 40 ------- 0 2.0 0.0 29 95
r 0.51264 1 0 ack 40 ------- 0 2.0 0.0 29 94
r 0.51896 2 1 ack 40 ------- 0 2.0 0.0 31 96
+ 0.51896 1 0 ack 40 ------- 0 2.0 0.0 31 96
- 0.51896 1 0 ack 40 ------- 0 2.0 0.0 31 96
r 0.52096 1 0 ack 40 ------- 0 2.0 0.0 29 95
r 0.52928 1 0 ack 40 ------- 0 2.0 0.0 31 96
+ 0.52928 0 1 tcp 1040 ------- 0 0.0 2.0 32 97
- 0.52928 0 1 tcp 1040 ------- 0 0.0 2.0 32 97
+ 0.52928 0 1 tcp 1040 ------- 0 0.0 2.0 33 98
- 0.5376 0 1 tcp 1040 ------- 0 0.0 2.0 33 98
r 0.5476 0 1 tcp 1040 ------- 0 0.0 2.0 32 97
+ 0.5476 1 2 tcp 1040 ------- 0 0.0 2.0 32 97
- 0.5476 1 2 tcp 1040 ------- 0 0.0 2.0 32 97
r 0.55592 0 1 tcp 1040 ------- 0 0.0 2.0 33 98
+ 0.55592 1 2 tcp 1040 ------- 0 0.0 2.0 33 98
- 0.55592 1 2 tcp 1040 ------- 0 0.0 2.0 33 98
r 0.56592 1 2 tcp 1040 ------- 0 0.0 2.0 32 97
+ 0.56592 2 1 ack 40 ------- 0 2.0 0.0 33 99
- 0.56592 2 1 ack 40 ------- 0 2.0 0.0 33 99
r 0.57424 1 2 tcp 1040 ------- 0 0.0 2.0 33 98
+ 0.57424 2 1 ack 40 ------- 0 2.0 0.0 33 100
- 0.57424 2 1 ack 40 ------- 0 2.0 0.0 33 100
r 0.57624 2 1 ack 40 ------- 0 2.0 0.0 33 99
+ 0.57624 1 0 ack 40 ------- 0 2.0 0.0 33 99
- 0.57624 1 0 ack 40 ------- 0 2.0 0.0 33 99
r 0.58456 2 1 ack 40 ------- 0 2.0 0.0 33 100
+ 0.58456 1 0 ack 40 ------- 0 2.0 0.0 33 100
- 0.58456 1 0 ack 40 ------- 0 2.0 0.0 33 100
r 0.58656 1 0 ack 40 ------- 0 2.0 0.0 33 99
+ 0.58656 0 1 tcp 1040 ------- 0 0.0 2.0 34 101
- 0.58656 0 1 tcp 1040 ------- 0 0.0 2.0 34 101
+ 0.58656 0 1 tcp 1040 ------- 0 0.0 2.0 35 102
+ 0.58656 0 1 tcp 1040 ------- 0 0.0 2.0 36 103
r 0.59488 1 0 ack 40 ------- 0 2.0 0.0 33 100
+ 0.59488 0 1 tcp 1040 ------- 0 0.0 2.0 37 104
- 0.59488 0 1 tcp 1040 ------- 0 0.0 2.0 35 102
- 0.6032 0 1 tcp 1040 ------- 0 0.0 2.0 36 103
r 0.60488 0 1 tcp 1040 ------- 0 0.0 2.0 34 101
+ 0.60488 1 2 tcp 1040 ------- 0 0.0 2.0 34 101
- 0.60488 1 2 tcp 1040 ------- 0 0.0 2.0 34 101
- 0.61152 0 1 tcp 1040 ------- 0 0.0 2.0 37 104
r 0.6132 0 1 tcp 1040 ------- 0 0.0 2.0 35 102
+ 0.6132 1 2 tcp 1040 ------- 0 0.0 2.0 35 102
- 0.6132 1 2 tcp 1040 ------- 0 0.0 2.0 35 102
r 0.62152 0 1 tcp 1040 ------- 0 0.0 2.0 36 103
+ 0.62152 1 2 tcp 1040 ------- 0 0.0 2.0 36 103
- 0.62152 1 2 tcp 1040 ------- 0 0.0 2.0 36 103
r 0.6232 1 2 tcp 1040 ------- 0 0.0 2.0 34 101
+ 0.6232 2 1 ack 40 ------- 0 2.0 0.0 35 105
- 0.6232 2 1 ack 40 ------- 0 2.0 0.0 35 105
r 0.62984 0 1 tcp 1040 ------- 0 0.0 2.0 37 104
+ 0.62984 1 2 tcp 1040 ------- 0 0.0 2.0 37 104
- 0.62984 1 2 tcp 1040 ------- 0 0.0 2.0 37 104
r 0.63152 1 2 tcp 1040 ------- 0 0.0 2.0 35 102
+ 0.63152 2 1 ack 40 ------- 0 2.0 0.0 35 106
- 0.63152 2 1 ack 40 ------- 0 2.0 0.0 35 106
r 0.63352 2 1 ack 40 ------- 0 2.0 0.0 35 105
+ 0.63352 1 0 ack 40 ------- 0 2.0 0.0 35 105
- 0.63352 1 0 ack 40 ------- 0 2.0 0.0 35 105
r 0.63984 1 2 tcp 1040 ------- 0 0.0 2.0 36 103
+ 0.63984 2 1 ack 40 ------- 0 2.0 0.0 37 107
- 0.63984 2 1 ack 40 ------- 0 2.0 0.0 37 107
r 0.64184 2 1 ack 40 ------- 0 2.0 0.0 35 106
+ 0.64184 1 0 ack 40 ------- 0 2.0 0.0 35 106
- 0.64184 1 0 ack 40 ------- 0 2.0 0.0 35 106
r 0.64384 1 0 ack 40 ------- 0 2.0 0.0 35 105
+ 0.64384 0 1 tcp 1040 ------- 0 0.0 2.0 38 108
- 0.64384 0 1 tcp 1040 ------- 0 0.0 2.0 38 108
+ 0.64384 0 1 tcp 1040 ------- 0 0.0 2.0 39 109
r 0.64816 1 2 tcp 1040 ------- 0 0.0 2.0 37 104
+ 0.64816 2 1 ack 40 ------- 0 2.0 0.0 37 110
- 0.64816 2 1 ack 40 ------- 0 2.0 0.0 37 110
r 0.65016 2 1 ack 40 ------- 0 2.0 0.0 37 107
+ 0.65016 1 0 ack 40 ------- 0 2.0 0.0 37 107
- 0.65016 1 0 ack 40 ------- 0 2.0 0.0 37 107
r 0.65216 1 0 ack 40 ------- 0 2.0 0.0 35 106
+ 0.65216 0 1 tcp 1040 ------- 0 0.0 2.0 40 111
- 0.65216 0 1 tcp 1040 ------- 0 0.0 2.0 39 109
r 0.65848 2 1 ack 40 ------- 0 2.0 0.0 37 110
+ 0.65848 1 0 ack 40 ------- 0 2.0 0.0 37 110
- 0.65848 1 0 ack 40 ------- 0 2.0 0.0 37 110
r 0.66048 1 0 ack 40 ------- 0 2.0 0.0 37 107
+ 0.66048 0 1 tcp 1040 ------- 0 0.0 2.0 41 112
+ 0.66048 0 1 tcp 1040 ------- 0 0.0 2.0 42 113
- 0.66048 0 1 tcp 1040 ------- 0 0.0 2.0 40 111
r 0.66216 0 1 tcp 1040 ------- 0 0.0 2.0 38 108
+ 0.66216 1 2 tcp 1040 ------- 0 0.0 2.0 38 108
- 0.66216 1 2 tcp 1040 ------- 0 0.0 2.0 38 108
r 0.6688 1 0 ack 40 ------- 0 2.0 0.0 37 110
+ 0.6688 0 1 tcp 1040 ------- 0 0.0 2.0 43 114
- 0.6688 0 1 tcp 1040 ------- 0 0.0 2.0 41 112
r 0.67048 0 1 tcp 1040 ------- 0 0.0 2.0 39 109
+ 0.67048 1 2 tcp 1040 ------- 0 0.0 2.0 39 109
- 0.67048 1 2 tcp 1040 ------- 0 0.0 2.0 39 109
- 0.67712 0 1 tcp 1040 ------- 0 0.0 2.0 42 113
r 0.6788 0 1 tcp 1040 ------- 0 0.0 2.0 40 111
+ 0.6788 1 2 tcp 1040 ------- 0 0.0 2.0 40 111
- 0.6788 1 2 tcp 1040 ------- 0 0.0 2.0 40 111
r 0.68048 1 2 tcp 1040 ------- 0 0.0 2.0 38 108
+ 0.68048 2 1 ack 40 ------- 0 2.0 0.0 49 115
- 0.68048 2 1 ack 40 ------- 0 2.0 0.0 49 115