V -t * -v 1.0a5 -a 0
A -t * -n 1 -p 0 -o 0x7fffffff -c 30 -a 1
A -t * -h 1 -m 1073741823 -s 0
n -t * -a 0 -s 0 -S UP -v circle -c black -i black
n -t * -a 1 -s 1 -S UP -v circle -c black -i black
n -t * -a 2 -s 2 -S UP -v circle -c black -i black
l -t * -s 0 -d 1 -S UP -r 5000000 -D 0.01 -c black -o right
l -t * -s 1 -d 2 -S UP -r 5000000 -D 0.01 -c black -o right
+ -t 0 -s 0 -d 1 -p tcp -e 40 -c 0 -i 0 -a 0 -x {0.0 2.0 0 ------- null}
- -t 0 -s 0 -d 1 -p tcp -e 40 -c 0 -i 0 -a 0 -x {0.0 2.0 0 ------- null}
h -t 0 -s 0 -d 1 -p tcp -e 40 -c 0 -i 0 -a 0 -x {0.0 2.0 -1 ------- null}
r -t 0.010064 -s 0 -d 1 -p tcp -e 40 -c 0 -i 0 -a 0 -x {0.0 2.0 0 ------- null}
+ -t 0.010064 -s 1 -d 2 -p tcp -e 40 -c 0 -i 0 -a 0 -x {0.0 2.0 0 ------- null}
- -t 0.010064 -s 1 -d 2 -p tcp -e 40 -c 0 -i 0 -a 0 -x {0.0 2.0 0 ------- null}
h -t 0.010064 -s 1 -d 2 -p tcp -e 40 -c 0 -i 0 -a 0 -x {0.0 2.0 -1 ------- null}
r -t 0.020128 -s 1 -d 2 -p tcp -e 40 -c 0 -i 0 -a 0 -x {0.0 2.0 0 ------- null}
+ -t 0.020128 -s 2 -d 1 -p ack -e 40 -c 0 -i 1 -a 0 -x {2.0 0.0 0 ------- null}
- -t 0.020128 -s 2 -d 1 -p ack -e 40 -c 0 -i 1 -a 0 -x {2.0 0.0 0 ------- null}
h -t 0.020128 -s 2 -d 1 -p ack -e 40 -c 0 -i 1 -a 0 -x {2.0 0.0 -1 ------- null}
r -t 0.030192 -s 2 -d 1 -p ack -e 40 -c 0 -i 1 -a 0 -x {2.0 0.0 0 ------- null}
+ -t 0.030192 -s 1 -d 0 -p ack -e 40 -c 0 -i 1 -a 0 -x {2.0 0.0 0 ------- null}
- -t 0.030192 -s 1 -d 0 -p ack -e 40 -c 0 -i 1 -a 0 -x {2.0 0.0 0 ------- null}
h -t 0.030192 -s 1 -d 0 -p ack -e 40 -c 0 -i 1 -a 0 -x {2.0 0.0 -1 ------- null}
r -t 0.040256 -s 1 -d 0 -p ack -e 40 -c 0 -i 1 -a 0 -x {2.0 0.0 0 ------- null}
+ -t 0.040256 -s 0 -d 1 -p tcp -e 1040 -c 0 -i 2 -a 0 -x {0.0 2.0 1 ------- null}
- -t 0.040256 -s 0 -d 1 -p tcp -e 1040 -c 0 -i 2 -a 0 -x {0.0 2.0 1 ------- null}
h -t 0.040256 -s 0 -d 1 -p tcp -e 1040 -c 0 -i 2 -a 0 -x {0.0 2.0 -1 ------- null}
+ -t 0.040256 -s 0 -d 1 -p tcp -e 1040 -c 0 -i 3 -a 0 -x {0.0 2.0 2 ------- null}
- -t 0.04192 -s 0 -d 1 -p tcp -e 1040 -c 0 -i 3 -a 0 -x {0.0 2.0 2 ------- null}
h -t 0.04192 -s 0 -d 1 -p tcp -e 1040 -c 0 -i 3 -a 0 -x {0.0 2.0 -1 ------- null}
r -t 0.05192 -s 0 -d 1 -p tcp -e 1040 -c 0 -i 2 -a 0 -x {0.0 2.0 1 ------- null}
+ -t 0.05192 -s 1 -d 2 -p tcp -e 1040 -c 0 -i 2 -a 0 -x {0.0 2.0 1 ------- null}
- -t 0.05192 -s 1 -d 2 -p tcp -e 1040 -c 0 -i 2 -a 0 -x {0.0 2.0 1 ------- null}
h -t 0.05192 -s 1 -d 2 -p tcp -e 1040 -c 0 -i 2 -a 0 -x {0.0 2.0 -1 ------- null}
r -t 0.053584 -s 0 -d 1 -p tcp -e 1040 -c 0 -i 3 -a 0 -x {0.0 2.0 2 ------- null}
+ -t 0.053584 -s 1 -d 2 -p tcp -e 1040 -c 0 -i 3 -a 0 -x {0.0 2.0 2 ------- null}
- -t 0.053584 -s 1 -d 2 -p tcp -e 1040 -c 0 -i 3 -a 0 -x {0.0 2.0 2 ------- null}
h -t 0.053584 -s 1 -d 2 -p tcp -e 1040 -c 0 -i 3 -a 0 -x {0.0 2.0 -1 ------- null}
r -t 0.063584 -s 1 -d 2 -p tcp -e 1040 -c 0 -i 2 -a 0 -x {0.0 2.0 1 ------- null}
+ -t 0.063584 -s 2 -d 1 -p ack -e 40 -c 0 -i 4 -a 0 -x {2.0 0.0 1 ------- null}
- -t 0.063584 -s 2 -d 1 -p ack -e 40 -c 0 -i 4 -a 0 -x {2.0 0.0 1 ------- null}
h -t 0.063584 -s 2 -d 1 -p ack -e 40 -c 0 -i 4 -a 0 -x {2.0 0.0 -1 ------- null}
r -t 0.065248 -s 1 -d 2 -p tcp -e 1040 -c 0 -i 3 -a 0 -x {0.0 2.0 2 ------- null}
+ -t 0.065248 -s 2 -d 1 -p ack -e 40 -c 0 -i 5 -a 0 -x {2.0 0.0 2 ------- null}
- -t 0.065248 -s 2 -d 1 -p ack -e 40 -c 0 -i 5 -a 0 -x {2.0 0.0 2 ------- null}
h -t 0.065248 -s 2 -d 1 -p ack -e 40 -c 0 -i 5 -a 0 -x {2.0 0.0 -1 ------- null}
r -t 0.073648 -s 2 -d 1 -p ack -e 40 -c 0 -i 4 -a 0 -x {2.0 0.0 1 ------- null}
+ -t 0.073648 -s 1 -d 0 -p ack -e 40 -c 0 -i 4 -a 0 -x {2.0 0.0 1 ------- null}
- -t 0.073648 -s 1 -d 0 -p ack -e 40 -c 0 -i 4 -a 0 -x {2.0 0.0 1 ------- null}
h -t 0.073648 -s 1 -d 0 -p ack -e 40 -c 0 -i 4 -a 0 -x {2.0 0.0 -1 ------- null}
r -t 0.075312 -s 2 -d 1 -p ack -e 40 -c 0 -i 5 -a 0 -x {2.0 0.0 2 ------- null}
+ -t 0.075312 -s 1 -d 0 -p ack -e 40 -c 0 -i 5 -a 0 -x {2.0 0.0 2 ------- null}
- -t 0.075312 -s 1 -d 0 -p ack -e 40 -c 0 -i 5 -a 0 -x {2.0 0.0 2 ------- null}
h -t 0.075312 -s 1 -d 0 -p ack -e 40 -c 0 -i 5 -a 0 -x {2.0 0.0 -1 ------- null}
r -t 0.083712 -s 1 -d 0 -p ack -e 40 -c 0 -i 4 -a 0 -x {2.0 0.0 1 ------- null}
+ -t 0.083712 -s 0 -d 1 -p tcp -e 1040 -c 0 -i 6 -a 0 -x {0.0 2.0 3 ------- null}
- -t 0.083712 -s 0 -d 1 -p tcp -e 1040 -c 0 -i 6 -a 0 -x {0.0 2.0 3 ------- null}
h -t 0.083712 -s 0 -d 1 -p tcp -e 1040 -c 0 -i 6 -a 0 -x {0.0 2.0 -1 ------- null}
+ -t 0.083712 -s 0 -d 1 -p tcp -e 1040 -c 0 -i 7 -a 0 -x {0.0 2.0 4 ------- null}
r -t 0.085376 -s 1 -d 0 -p ack -e 40 -c 0 -i 5 -a 0 -x {2.0 0.0 2 ------- null}
+ -t 0.085376 -s 0 -d 1 -p tcp -e 1040 -c 0 -i 8 -a 0 -x {0.0 2.0 5 ------- null}
+ -t 0.085376 -s 0 -d 1 -p tcp -e 1040 -c 0 -i 9 -a 0 -x {0.0 2.0 6 ------- null}
- -t 0.085376 -s 0 -d 1 -p tcp -e 1040 -c 0 -i 7 -a 0 -x {0.0 2.0 4 ------- null}
h -t 0.085376 -s 0 -d 1 -p tcp -e 1040 -c 0 -i 7 -a 0 -x {0.0 2.0 -1 ------- null}
- -t 0.08704 -s 0 -d 1 -p tcp -e 1040 -c 0 -i 8 -a 0 -x {0.0 2.0 5 ------- null}
h -t 0.08704 -s 0 -d 1 -p tcp -e 1040 -c 0 -i 8 -a 0 -x {0.0 2.0 -1 ------- null}
- -t 0.088704 -s 0 -d 1 -p tcp -e 1040 -c 0 -i 9 -a 0 -x {0.0 2.0 6 ------- null}
h -t 0.088704 -s 0 -d 1 -p tcp -e 1040 -c 0 -i 9 -a 0 -x {0.0 2.0 -1 ------- null}
r -t 0.095376 -s 0 -d 1 -p tcp -e 1040 -c 0 -i 6 -a 0 -x {0.0 2.0 3 ------- null}
+ -t 0.095376 -s 1 -d 2 -p tcp -e 1040 -c 0 -i 6 -a 0 -x {0.0 2.0 3 ------- null}
- -t 0.095376 -s 1 -d 2 -p tcp -e 1040 -c 0 -i 6 -a 0 -x {0.0 2.0 3 ------- null}
h -t 0.095376 -s 1 -d 2 -p tcp -e 1040 -c 0 -i 6 -a 0 -x {0.0 2.0 -1 ------- null}
r -t 0.09704 -s 0 -d 1 -p tcp -e 1040 -c 0 -i 7 -a 0 -x {0.0 2.0 4 ------- null}
+ -t 0.09704 -s 1 -d 2 -p tcp -e 1040 -c 0 -i 7 -a 0 -x {0.0 2.0 4 ------- null}
- -t 0.09704 -s 1 -d 2 -p tcp -e 1040 -c 0 -i 7 -a 0 -x {0.0 2.0 4 ------- null}
h -t 0.09704 -s 1 -d 2 -p tcp -e 1040 -c 0 -i 7 -a 0 -x {0.0 2.0 -1 ------- null}
r -t 0.098704 -s 0 -d 1 -p tcp -e 1040 -c 0 -i 8 -a 0 -x {0.0 2.0 5 ------- null}
+ -t 0.098704 -s 1 -d 2 -p tcp -e 1040 -c 0 -i 8 -a 0 -x {0.0 2.0 5 ------- null}
- -t 0.098704 -s 1 -d 2 -p tcp -e 1040 -c 0 -i 8 -a 0 -x {0.0 2.0 5 ------- null}
h -t 0.098704 -s 1 -d 2 -p tcp -e 1040 -c 0 -i 8 -a 0 -x {0.0 2.0 -1 ------- null}
r -t 0.100368 -s 0 -d 1 -p tcp -e 1040 -c 0 -i 9 -a 0 -x {0.0 2.0 6 ------- null}
+ -t 0.100368 -s 1 -d 2 -p tcp -e 1040 -c 0 -i 9 -a 0 -x {0.0 2.0 6 ------- null}
- -t 0.100368 -s 1 -d 2 -p tcp -e 1040 -c 0 -i 9 -a 0 -x {0.0 2.0 6 ------- null}
h -t 0.100368 -s 1 -d 2 -p tcp -e 1040 -c 0 -i 9 -a 0 -x {0.0 2.0 -1 ------- null}
r -t 0.10704 -s 1 -d 2 -p tcp -e 1040 -c 0 -i 6 -a 0 -x {0.0 2.0 3 ------- null}
+ -t 0.10704 -s 2 -d 1 -p ack -e 40 -c 0 -i 10 -a 0 -x {2.0 0.0 3 ------- null}
- -t 0.10704 -s 2 -d 1 -p ack -e 40 -c 0 -i 10 -a 0 -x {2.0 0.0 3 ------- null}
h -t 0.10704 -s 2 -d 1 -p ack -e 40 -c 0 -i 10 -a 0 -x {2.0 0.0 -1 ------- null}
r -t 0.108704 -s 1 -d 2 -p tcp -e 1040 -c 0 -i 7 -a 0 -x {0.0 2.0 4 ------- null}
+ -t 0.108704 -s 2 -d 1 -p ack -e 40 -c 0 -i 11 -a 0 -x {2.0 0.0 4 ------- null}
- -t 0.108704 -s 2 -d 1 -p ack -e 40 -c 0 -i 11 -a 0 -x {2.0 0.0 4 ------- null}
h -t 0.108704 -s 2 -d 1 -p ack -e 40 -c 0 -i 11 -a 0 -x {2.0 0.0 -1 ------- null}
r -t 0.110368 -s 1 -d 2 -p tcp -e 1040 -c 0 -i 8 -a 0 -x {0.0 2.0 5 ------- null}
+ -t 0.110368 -s 2 -d 1 -p ack -e 40 -c 0 -i 12 -a 0 -x {2.0 0.0 5 ------- null}
- -t 0.110368 -s 2 -d 1 -p ack -e 40 -c 0 -i 12 -a 0 -x {2.0 0.0 5 ------- null}
h -t 0.110368 -s 2 -d 1 -p ack -e 40 -c 0 -i 12 -a 0 -x {2.0 0.0 -1 ------- null}
r -t 0.112032 -s 1 -d 2 -p tcp -e 1040 -c 0 -i 9 -a 0 -x {0.0 2.0 6 ------- null}
+ -t 0.112032 -s 2 -d 1 -p ack -e 40 -c 0 -i 13 -a 0 -x {2.0 0.0 6 ------- null}
- -t 0.112032 -s 2 -d 1 -p ack -e 40 -c 0 -i 13 -a 0 -x {2.0 0.0 6 ------- null}
h -t 0.112032 -s 2 -d 1 -p ack -e 40 -c 0 -i 13 -a 0 -x {2.0 0.0 -1 ------- null}
r -t 0.117104 -s 2 -d 1 -p ack -e 40 -c 0 -i 10 -a 0 -x {2.0 0.0 3 ------- null}
+ -t 0.117104 -s 1 -d 0 -p ack -e 40 -c 0 -i 10 -a 0 -x {2.0 0.0 3 ------- null}
- -t 0.117104 -s 1 -d 0 -p ack -e 40 -c 0 -i 10 -a 0 -x {2.0 0.0 3 ------- null}
h -t 0.117104 -s 1 -d 0 -p ack -e 40 -c 0 -i 10 -a 0 -x {2.0 0.0 -1 ------- null}
r -t 0.118768 -s 2 -d 1 -p ack -e 40 -c 0 -i 11 -a 0 -x {2.0 0.0 4 ------- null}
+ -t 0.118768 -s 1 -d 0 -p ack -e 40 -c 0 -i 11 -a 0 -x {2.0 0.0 4 ------- null}
- -t 0.118768 -s 1 -d 0 -p ack -e 40 -c 0 -i 11 -a 0 -x {2.0 0.0 4 ------- null}
h -t 0.118768 -s 1 -d 0 -p ack -e 40 -c 0 -i 11 -a 0 -x {2.0 0.0 -1 ------- null}
r -t 0.120432 -s 2 -d 1 -p ack -e 40 -c 0 -i 12 -a 0 -x {2.0 0.0 5 ------- null}
+ -t 0.120432 -s 1 -d 0 -p ack -e 40 -c 0 -i 12 -a 0 -x {2.0 0.0 5 ------- null}
- -t 0.120432 -s 1 -d 0 -p ack -e 40 -c 0 -i 12 -a 0 -x {2.0 0.0 5 ------- null}
h -t 0.120432 -s 1 -d 0 -p ack -e 40 -c 0 -i 12 -a 0 -x {2.0 0.0 -1 ------- null}
r -t 0.122096 -s 2 -d 1 -p ack -e 40 -c 0 -i 13 -a 0 -x {2.0 0.0 6 ------- null}
+ -t 0.122096 -s 1 -d 0 -p ack -e 40 -c 0 -i 13 -a 0 -x {2.0 0.0 6 ------- null}
- -t 0.122096 -s 1 -d 0 -p ack -e 40 -c 0 -i 13 -a 0 -x {2.0 0.0 6 ------- null}
h -t 0.122096 -s 1 -d 0 -p ack -e 40 -c 0 -i 13 -a 0 -x {2.0 0.0 -1 ------- null}
r -t 0.127168 -s 1 -d 0 -p ack -e 40 -c 0 -i 10 -a 0 -x {2.0 0.0 3 ------- null}
+ -t 0.127168 -s 0 -d 1 -p tcp -e 1040 -c 0 -i 14 -a 0 -x {0.0 2.0 7 ------- null}
- -t 0.127168 -s 0 -d 1 -p tcp -e 1040 -c 0 -i 14 -a 0 -x {0.0 2.0 7 ------- null}
h -t 0.127168 -s 0 -d 1 -p tcp -e 1040 -c 0 -i 14 -a 0 -x {0.0 2.0 -1 ------- null}
+ -t 0.127168 -s 0 -d 1 -p tcp -e 1040 -c 0 -i 15 -a 0 -x {0.0 2.0 8 ------- null}
r -t 0.128832 -s 1 -d 0 -p ack -e 40 -c 0 -i 11 -a 0 -x {2.0 0.0 4 ------- null}
+ -t 0.128832 -s 0 -d 1 -p tcp -e 1040 -c 0 -i 16 -a 0 -x {0.0 2.0 9 ------- null}
+ -t 0.128832 -s 0 -d 1 -p tcp -e 1040 -c 0 -i 17 -a 0 -x {0.0 2.0 10 ------- null}
- -t 0.128832 -s 0 -d 1 -p tcp -e 1040 -c 0 -i 15 -a 0 -x {0.0 2.0 8 ------- null}
h -t 0.128832 -s 0 -d 1 -p tcp -e 1040 -c 0 -i 15 -a 0 -x {0.0 2.0 -1 ------- null}
r -t 0.130496 -s 1 -d 0 -p ack -e 40 -c 0 -i 12 -a 0 -x {2.0 0.0 5 ------- null}
+ -t 0.130496 -s 0 -d 1 -p tcp -e 1040 -c 0 -i 18 -a 0 -x {0.0 2.0 11 ------- null}
+ -t 0.130496 -s 0 -d 1 -p tcp -e 1040 -c 0 -i 19 -a 0 -x {0.0 2.0 12 ------- null}
- -t 0.130496 -s 0 -d 1 -p tcp -e 1040 -c 0 -i 16 -a 0 -x {0.0 2.0 9 ------- null}
h -t 0.130496 -s 0 -d 1 -p tcp -e 1040 -c 0 -i 16 -a 0 -x {0.0 2.0 -1 ------- null}
r -t 0.13216 -s 1 -d 0 -p ack -e 40 -c 0 -i 13 -a 0 -x {2.0 0.0 6 ------- null}
+ -t 0.13216 -s 0 -d 1 -p tcp -e 1040 -c 0 -i 20 -a 0 -x {0.0 2.0 13 ------- null}
+ -t 0.13216 -s 0 -d 1 -p tcp -e 1040 -c 0 -i 21 -a 0 -x {0.0 2.0 14 ------- null}
d -t 0.13216 -s 0 -d 1 -p tcp -e 1040 -c 0 -i 21 -a 0 -x {0.0 2.0 14 ------- null}
- -t 0.13216 -s 0 -d 1 -p tcp -e 1040 -c 0 -i 17 -a 0 -x {0.0 2.0 10 ------- null}
h -t 0.13216 -s 0 -d 1 -p tcp -e 1040 -c 0 -i 17 -a 0 -x {0.0 2.0 -1 ------- null}
- -t 0.133824 -s 0 -d 1 -p tcp -e 1040 -c 0 -i 18 -a 0 -x {0.0 2.0 11 ------- null}
h -t 0.133824 -s 0 -d 1 -p tcp -e 1040 -c 0 -i 18 -a 0 -x {0.0 2.0 -1 ------- null}
- -t 0.135488 -s 0 -d 1 -p tcp -e 1040 -c 0 -i 19 -a 0 -x {0.0 2.0 12 ------- null}
h -t 0.135488 -s 0 -d 1 -p tcp -e 1040 -c 0 -i 19 -a 0 -x {0.0 2.0 -1 ------- null}
- -t 0.137152 -s 0 -d 1 -p tcp -e 1040 -c 0 -i 20 -a 0 -x {0.0 2.0 13 ------- null}
h -t 0.137152 -s 0 -d 1 -p tcp -e 1040 -c 0 -i 20 -a 0 -x {0.0 2.0 -1 ------- null}
r -t 0.138832 -s 0 -d 1 -p tcp -e 1040 -c 0 -i 14 -a 0 -x {0.0 2.0 7 ------- null}
+ -t 0.138832 -s 1 -d 2 -p tcp -e 1040 -c 0 -i 14 -a 0 -x {0.0 2.0 7 ------- null}
- -t 0.138832 -s 1 -d 2 -p tcp -e 1040 -c 0 -i 14 -a 0 -x {0.0 2.0 7 ------- null}
h -t 0.138832 -s 1 -d 2 -p tcp -e 1040 -c 0 -i 14 -a 0 -x {0.0 2.0 -1 ------- null}
r -t 0.140496 -s 0 -d 1 -p tcp -e 1040 -c 0 -i 15 -a 0 -x {0.0 2.0 8 ------- null}
+ -t 0.140496 -s 1 -d 2 -p tcp -e 1040 -c 0 -i 15 -a 0 -x {0.0 2.0 8 ------- null}
- -t 0.140496 -s 1 -d 2 -p tcp -e 1040 -c 0 -i 15 -a 0 -x {0.0 2.0 8 ------- null}
h -t 0.140496 -s 1 -d 2 -p tcp -e 1040 -c 0 -i 15 -a 0 -x {0.0 2.0 -1 ------- null}
r -t 0.14216 -s 0 -d 1 -p tcp -e 1040 -c 0 -i 16 -a 0 -x {0.0 2.0 9 ------- null}
+ -t 0.14216 -s 1 -d 2 -p tcp -e 1040 -c 0 -i 16 -a 0 -x {0.0 2.0 9 ------- null}
- -t 0.14216 -s 1 -d 2 -p tcp -e 1040 -c 0 -i 16 -a 0 -x {0.0 2.0 9 ------- null}
h -t 0.14216 -s 1 -d 2 -p tcp -e 1040 -c 0 -i 16 -a 0 -x {0.0 2.0 -1 ------- null}
r -t 0.143824 -s 0 -d 1 -p tcp -e 1040 -c 0 -i 17 -a 0 -x {0.0 2.0 10 ------- null}
+ -t 0.143824 -s 1 -d 2 -p tcp -e 1040 -c 0 -i 17 -a 0 -x {0.0 2.0 10 ------- null}
- -t 0.143824 -s 1 -d 2 -p tcp -e 1040 -c 0 -i 17 -a 0 -x {0.0 2.0 10 ------- null}
h -t 0.143824 -s 1 -d 2 -p tcp -e 1040 -c 0 -i 17 -a 0 -x {0.0 2.0 -1 ------- null}
r -t 0.145488 -s 0 -d 1 -p tcp -e 1040 -c 0 -i 18 -a 0 -x {0.0 2.0 11 ------- null}
+ -t 0.145488 -s 1 -d 2 -p tcp -e 1040 -c 0 -i 18 -a 0 -x {0.0 2.0 11 ------- null}
- -t 0.145488 -s 1 -d 2 -p tcp -e 1040 -c 0 -i 18 -a 0 -x {0.0 2.0 11 ------- null}
h -t 0.145488 -s 1 -d 2 -p tcp -e 1040 -c 0 -i 18 -a 0 -x {0.0 2.0 -1 ------- null}
r -t 0.147152 -s 0 -d 1 -p tcp -e 1040 -c 0 -i 19 -a 0 -x {0.0 2.0 12 ------- null}
+ -t 0.147152 -s 1 -d 2 -p tcp -e 1040 -c 0 -i 19 -a 0 -x {0.0 2.0 12 ------- null}
- -t 0.147152 -s 1 -d 2 -p tcp -e 1040 -c 0 -i 19 -a 0 -x {0.0 2.0 12 ------- null}
h -t 0.147152 -s 1 -d 2 -p tcp -e 1040 -c 0 -i 19 -a 0 -x {0.0 2.0 -1 ------- null}
r -t 0.148816 -s 0 -d 1 -p tcp -e 1040 -c 0 -i 20 -a 0 -x {0.0 2.0 13 ------- null}
+ -t 0.148816 -s 1 -d 2 -p tcp -e 1040 -c 0 -i 20 -a 0 -x {0.0 2.0 13 ------- null}
- -t 0.148816 -s 1 -d 2 -p tcp -e 1040 -c 0 -i 20 -a 0 -x {0.0 2.0 13 ------- null}
h -t 0.148816 -s 1 -d 2 -p tcp -e 1040 -c 0 -i 20 -a 0 -x {0.0 2.0 -1 ------- null}
r -t 0.150496 -s 1 -d 2 -p tcp -e 1040 -c 0 -i 14 -a 0 -x {0.0 2.0 7 ------- null}
+ -t 0.150496 -s 2 -d 1 -p ack -e 40 -c 0 -i 22 -a 0 -x {2.0 0.0 7 ------- null}
- -t 0.150496 -s 2 -d 1 -p ack -e 40 -c 0 -i 22 -a 0 -x {2.0 0.0 7 ------- null}
h -t 0.150496 -s 2 -d 1 -p ack -e 40 -c 0 -i 22 -a 0 -x {2.0 0.0 -1 ------- null}
r -t 0.15216 -s 1 -d 2 -p tcp -e 1040 -c 0 -i 15 -a 0 -x {0.0 2.0 8 ------- null}
+ -t 0.15216 -s 2 -d 1 -p ack -e 40 -c 0 -i 23 -a 0 -x {2.0 0.0 8 ------- null}
- -t 0.15216 -s 2 -d 1 -p ack -e 40 -c 0 -i 23 -a 0 -x {2.0 0.0 8 ------- null}
h -t 0.15216 -s 2 -d 1 -p ack -e 40 -c 0 -i 23 -a 0 -x {2.0 0.0 -1 ------- null}
r -t 0.153824 -s 1 -d 2 -p tcp -e 1040 -c 0 -i 16 -a 0 -x {0.0 2.0 9 ------- null}
+ -t 0.153824 -s 2 -d 1 -p ack -e 40 -c 0 -i 24 -a 0 -x {2.0 0.0 9 ------- null}
- -t 0.153824 -s 2 -d 1 -p ack -e 40 -c 0 -i 24 -a 0 -x {2.0 0.0 9 ------- null}
h -t 0.153824 -s 2 -d 1 -p ack -e 40 -c 0 -i 24 -a 0 -x {2.0 0.0 -1 ------- null}
r -t 0.155488 -s 1 -d 2 -p tcp -e 1040 -c 0 -i 17 -a 0 -x {0.0 2.0 10 ------- null}
+ -t 0.155488 -s 2 -d 1 -p ack -e 40 -c 0 -i 25 -a 0 -x {2.0 0.0 10 ------- null}
- -t 0.155488 -s 2 -d 1 -p ack -e 40 -c 0 -i 25 -a 0 -x {2.0 0.0 10 ------- null}
h -t 0.155488 -s 2 -d 1 -p ack -e 40 -c 0 -i 25 -a 0 -x {2.0 0.0 -1 ------- null}
r -t 0.157152 -s 1 -d 2 -p tcp -e 1040 -c 0 -i 18 -a 0 -x {0.0 2.0 11 ------- null}
+ -t 0.157152 -s 2 -d 1 -p ack -e 40 -c 0 -i 26 -a 0 -x {2.0 0.0 11 ------- null}
- -t 0.157152 -s 2 -d 1 -p ack -e 40 -c 0 -i 26 -a 0 -x {2.0 0.0 11 ------- null}
h -t 0.157152 -s 2 -d 1 -p ack -e 40 -c 0 -i 26 -a 0 -x {2.0 0.0 -1 ------- null}
r -t 0.158816 -s 1 -d 2 -p tcp -e 1040 -c 0 -i 19 -a 0 -x {0.0 2.0 12 ------- null}
+ -t 0.158816 -s 2 -d 1 -p ack -e 40 -c 0 -i 27 -a 0 -x {2.0 0.0 12 ------- null}
- -t 0.158816 -s 2 -d 1 -p ack -e 40 -c 0 -i 27 -a 0 -x {2.0 0.0 12 ------- null}
h -t 0.158816 -s 2 -d 1 -p ack -e 40 -c 0 -i 27 -a 0 -x {2.0 0.0 -1 ------- null}
r -t 0.16048 -s 1 -d 2 -p tcp -e 1040 -c 0 -i 20 -a 0 -x {0.0 2.0 13 ------- null}
+ -t 0.16048 -s 2 -d 1 -p ack -e 40 -c 0 -i 28 -a 0 -x {2.0 0.0 13 ------- null}
- -t 0.16048 -s 2 -d 1 -p ack -e 40 -c 0 -i 28 -a 0 -x {2.0 0.0 13 ------- null}
h -t 0.16048 -s 2 -d 1 -p ack -e 40 -c 0 -i 28 -a 0 -x {2.0 0.0 -1 ------- null}
r -t 0.16056 -s 2 -d 1 -p ack -e 40 -c 0 -i 22 -a 0 -x {2.0 0.0 7 ------- null}
+ -t 0.16056 -s 1 -d 0 -p ack -e 40 -c 0 -i 22 -a 0 -x {2.0 0.0 7 ------- null}
- -t 0.16056 -s 1 -d 0 -p ack -e 40 -c 0 -i 22 -a 0 -x {2.0 0.0 7 ------- null}
h -t 0.16056 -s 1 -d 0 -p ack -e 40 -c 0 -i 22 -a 0 -x {2.0 0.0 -1 ------- null}
r -t 0.162224 -s 2 -d 1 -p ack -e 40 -c 0 -i 23 -a 0 -x {2.0 0.0 8 ------- null}
+ -t 0.162224 -s 1 -d 0 -p ack -e 40 -c 0 -i 23 -a 0 -x {2.0 0.0 8 ------- null}
- -t 0.162224 -s 1 -d 0 -p ack -e 40 -c 0 -i 23 -a 0 -x {2.0 0.0 8 ------- null}
h -t 0.162224 -s 1 -d 0 -p ack -e 40 -c 0 -i 23 -a 0 -x {2.0 0.0 -1 ------- null}
r -t 0.163888 -s 2 -d 1 -p ack -e 40 -c 0 -i 24 -a 0 -x {2.0 0.0 9 ------- null}
+ -t 0.163888 -s 1 -d 0 -p ack -e 40 -c 0 -i 24 -a 0 -x {2.0 0.0 9 ------- null}
- -t 0.163888 -s 1 -d 0 -p ack -e 40 -c 0 -i 24 -a 0 -x {2.0 0.0 9 ------- null}
h -t 0.163888 -s 1 -d 0 -p ack -e 40 -c 0 -i 24 -a 0 -x {2.0 0.0 -1 ------- null}
r -t 0.165552 -s 2 -d 1 -p ack -e 40 -c 0 -i 25 -a 0 -x {2.0 0.0 10 ------- null}
+ -t 0.165552 -s 1 -d 0 -p ack -e 40 -c 0 -i 25 -a 0 -x {2.0 0.0 10 ------- null}
- -t 0.165552 -s 1 -d 0 -p ack -e 40 -c 0 -i 25 -a 0 -x {2.0 0.0 10 ------- null}
h -t 0.165552 -s 1 -d 0 -p ack -e 40 -c 0 -i 25 -a 0 -x {2.0 0.0 -1 ------- null}
r -t 0.167216 -s 2 -d 1 -p ack -e 40 -c 0 -i 26 -a 0 -x {2.0 0.0 11 ------- null}
+ -t 0.167216 -s 1 -d 0 -p ack -e 40 -c 0 -i 26 -a 0 -x {2.0 0.0 11 ------- null}
- -t 0.167216 -s 1 -d 0 -p ack -e 40 -c 0 -i 26 -a 0 -x {2.0 0.0 11 ------- null}
h -t 0.167216 -s 1 -d 0 -p ack -e 40 -c 0 -i 26 -a 0 -x {2.0 0.0 -1 ------- null}
r -t 0.16888 -s 2 -d 1 -p ack -e 40 -c 0 -i 27 -a 0 -x {2.0 0.0 12 ------- null}
+ -t 0.16888 -s 1 -d 0 -p ack -e 40 -c 0 -i 27 -a 0 -x {2.0 0.0 12 ------- null}
- -t 0.16888 -s 1 -d 0 -p ack -e 40 -c 0 -i 27 -a 0 -x {2.0 0.0 12 ------- null}
h -t 0.16888 -s 1 -d 0 -p ack -e 40 -c 0 -i 27 -a 0 -x {2.0 0.0 -1 ------- null}
r -t 0.170544 -s 2 -d 1 -p ack -e 40 -c 0 -i 28 -a 0 -x {2.0 0.0 13 ------- null}
+ -t 0.170544 -s 1 -d 0 -p ack -e 40 -c 0 -i 28 -a 0 -x {2.0 0.0 13 ------- null}
- -t 0.170544 -s 1 -d 0 -p ack -e 40 -c 0 -i 28 -a 0 -x {2.0 0.0 13 ------- null}
h -t 0.170544 -s 1 -d 0 -p ack -e 40 -c 0 -i 28 -a 0 -x {2.0 0.0 -1 ------- null}
r -t 0.170624 -s 1 -d 0 -p ack -e 40 -c 0 -i 22 -a 0 -x {2.0 0.0 7 ------- null}
+ -t 0.170624 -s 0 -d 1 -p tcp -e 1040 -c 0 -i 29 -a 0 -x {0.0 2.0 15 ------- null}
- -t 0.170624 -s 0 -d 1 -p tcp -e 1040 -c 0 -i 29 -a 0 -x {0.0 2.0 15 ------- null}
h -t 0.170624 -s 0 -d 1 -p tcp -e 1040 -c 0 -i 29 -a 0 -x {0.0 2.0 -1 ------- null}
+ -t 0.170624 -s 0 -d 1 -p tcp -e 1040 -c 0 -i 30 -a 0 -x {0.0 2.0 16 ------- null}
r -t 0.172288 -s 1 -d 0 -p ack -e 40 -c 0 -i 23 -a 0 -x {2.0 0.0 8 ------- null}
+ -t 0.172288 -s 0 -d 1 -p tcp -e 1040 -c 0 -i 31 -a 0 -x {0.0 2.0 17 ------- null}
+ -t 0.172288 -s 0 -d 1 -p tcp -e 1040 -c 0 -i 32 -a 0 -x {0.0 2.0 18 ------- null}
- -t 0.172288 -s 0 -d 1 -p tcp -e 1040 -c 0 -i 30 -a 0 -x {0.0 2.0 16 ------- null}
h -t 0.172288 -s 0 -d 1 -p tcp -e 1040 -c 0 -i 30 -a 0 -x {0.0 2.0 -1 ------- null}
r -t 0.173952 -s 1 -d 0 -p ack -e 40 -c 0 -i 24 -a 0 -x {2.0 0.0 9 ------- null}
+ -t 0.173952 -s 0 -d 1 -p tcp -e 1040 -c 0 -i 33 -a 0 -x {0.0 2.0 19 ------- null}
+ -t 0.173952 -s 0 -d 1 -p tcp -e 1040 -c 0 -i 34 -a 0 -x {0.0 2.0 20 ------- null}
- -t 0.173952 -s 0 -d 1 -p tcp -e 1040 -c 0 -i 31 -a 0 -x {0.0 2.0 17 ------- null}
h -t 0.173952 -s 0 -d 1 -p tcp -e 1040 -c 0 -i 31 -a 0 -x {0.0 2.0 -1 ------- null}
r -t 0.175616 -s 1 -d 0 -p ack -e 40 -c 0 -i 25 -a 0 -x {2.0 0.0 10 ------- null}
+ -t 0.175616 -s 0 -d 1 -p tcp -e 1040 -c 0 -i 35 -a 0 -x {0.0 2.0 21 ------- null}
+ -t 0.175616 -s 0 -d 1 -p tcp -e 1040 -c 0 -i 36 -a 0 -x {0.0 2.0 22 ------- null}
d -t 0.175616 -s 0 -d 1 -p tcp -e 1040 -c 0 -i 36 -a 0 -x {0.0 2.0 22 ------- null}
- -t 0.175616 -s 0 -d 1 -p tcp -e 1040 -c 0 -i 32 -a 0 -x {0.0 2.0 18 ------- null}
h -t 0.175616 -s 0 -d 1 -p tcp -e 1040 -c 0 -i 32 -a 0 -x {0.0 2.0 -1 ------- null}
r -t 0.17728 -s 1 -d 0 -p ack -e 40 -c 0 -i 26 -a 0 -x {2.0 0.0 11 ------- null}
+ -t 0.17728 -s 0 -d 1 -p tcp -e 1040 -c 0 -i 37 -a 0 -x {0.0 2.0 23 ------- null}
+ -t 0.17728 -s 0 -d 1 -p tcp -e 1040 -c 0 -i 38 -a 0 -x {0.0 2.0 24 ------- null}
d -t 0.17728 -s 0 -d 1 -p tcp -e 1040 -c 0 -i 38 -a 0 -x {0.0 2.0 24 ------- null}
- -t 0.17728 -s 0 -d 1 -p tcp -e 1040 -c 0 -i 33 -a 0 -x {0.0 2.0 19 ------- null}
h -t 0.17728 -s 0 -d 1 -p tcp -e 1040 -c 0 -i 33 -a 0 -x {0.0 2.0 -1 ------- null}
r -t 0.178944 -s 1 -d 0 -p ack -e 40 -c 0 -i 27 -a 0 -x {2.0 0.0 12 ------- null}
+ -t 0.178944 -s 0 -d 1 -p tcp -e 1040 -c 0 -i 39 -a 0 -x {0.0 2.0 25 ------- null}
+ -t 0.178944 -s 0 -d 1 -p tcp -e 1040 -c 0 -i 40 -a 0 -x {0.0 2.0 26 ------- null}
d -t 0.178944 -s 0 -d 1 -p tcp -e 1040 -c 0 -i 40 -a 0 -x {0.0 2.0 26 ------- null}
- -t 0.178944 -s 0 -d 1 -p tcp -e 1040 -c 0 -i 34 -a 0 -x {0.0 2.0 20 ------- null}
h -t 0.178944 -s 0 -d 1 -p tcp -e 1040 -c 0 -i 34 -a 0 -x {0.0 2.0 -1 ------- null}
r -t 0.180608 -s 1 -d 0 -p ack -e 40 -c 0 -i 28 -a 0 -x {2.0 0.0 13 ------- null}
+ -t 0.180608 -s 0 -d 1 -p tcp -e 1040 -c 0 -i 41 -a 0 -x {0.0 2.0 27 ------- null}
+ -t 0.180608 -s 0 -d 1 -p tcp -e 1040 -c 0 -i 42 -a 0 -x {0.0 2.0 28 ------- null}
d -t 0.180608 -s 0 -d 1 -p tcp -e 1040 -c 0 -i 42 -a 0 -x {0.0 2.0 28 ------- null}
- -t 0.180608 -s 0 -d 1 -p tcp -e 1040 -c 0 -i 35 -a 0 -x {0.0 2.0 21 ------- null}
h -t 0.180608 -s 0 -d 1 -p tcp -e 1040 -c 0 -i 35 -a 0 -x {0.0 2.0 -1 ------- null}
- -t 0.182272 -s 0 -d 1 -p tcp -e 1040 -c 0 -i 37 -a 0 -x {0.0 2.0 23 ------- null}
h -t 0.182272 -s 0 -d 1 -p tcp -e 1040 -c 0 -i 37 -a 0 -x {0.0 2.0 -1 ------- null}
r -t 0.182288 -s 0 -d 1 -p tcp -e 1040 -c 0 -i 29 -a 0 -x {0.0 2.0 15 ------- null}
+ -t 0.182288 -s 1 -d 2 -p tcp -e 1040 -c 0 -i 29 -a 0 -x {0.0 2.0 15 ------- null}
- -t 0.182288 -s 1 -d 2 -p tcp -e 1040 -c 0 -i 29 -a 0 -x {0.0 2.0 15 ------- null}
h -t 0.182288 -s 1 -d 2 -p tcp -e 1040 -c 0 -i 29 -a 0 -x {0.0 2.0 -1 ------- null}
- -t 0.183936 -s 0 -d 1 -p tcp -e 1040 -c 0 -i 39 -a 0 -x {0.0 2.0 25 ------- null}
h -t 0.183936 -s 0 -d 1 -p tcp -e 1040 -c 0 -i 39 -a 0 -x {0.0 2.0 -1 ------- null}
r -t 0.183952 -s 0 -d 1 -p tcp -e 1040 -c 0 -i 30 -a 0 -x {0.0 2.0 16 ------- null}
+ -t 0.183952 -s 1 -d 2 -p tcp -e 1040 -c 0 -i 30 -a 0 -x {0.0 2.0 16 ------- null}
- -t 0.183952 -s 1 -d 2 -p tcp -e 1040 -c 0 -i 30 -a 0 -x {0.0 2.0 16 ------- null}
h -t 0.183952 -s 1 -d 2 -p tcp -e 1040 -c 0 -i 30 -a 0 -x {0.0 2.0 -1 ------- null}
- -t 0.1856 -s 0 -d 1 -p tcp -e 1040 -c 0 -i 41 -a 0 -x {0.0 2.0 27 ------- null}
h -t 0.1856 -s 0 -d 1 -p tcp -e 1040 -c 0 -i 41 -a 0 -x {0.0 2.0 -1 ------- null}
r -t 0.185616 -s 0 -d 1 -p tcp -e 1040 -c 0 -i 31 -a 0 -x {0.0 2.0 17 ------- null}
+ -t 0.185616 -s 1 -d 2 -p tcp -e 1040 -c 0 -i 31 -a 0 -x {0.0 2.0 17 ------- null}
- -t 0.185616 -s 1 -d 2 -p tcp -e 1040 -c 0 -i 31 -a 0 -x {0.0 2.0 17 ------- null}
h -t 0.185616 -s 1 -d 2 -p tcp -e 1040 -c 0 -i 31 -a 0 -x {0.0 2.0 -1 ------- null}
r -t 0.18728 -s 0 -d 1 -p tcp -e 1040 -c 0 -i 32 -a 0 -x {0.0 2.0 18 ------- null}
+ -t 0.18728 -s 1 -d 2 -p tcp -e 1040 -c 0 -i 32 -a 0 -x {0.0 2.0 18 ------- null}
- -t 0.18728 -s 1 -d 2 -p tcp -e 1040 -c 0 -i 32 -a 0 -x {0.0 2.0 18 ------- null}
h -t 0.18728 -s 1 -d 2 -p tcp -e 1040 -c 0 -i 32 -a 0 -x {0.0 2.0 -1 ------- null}
r -t 0.188944 -s 0 -d 1 -p tcp -e 1040 -c 0 -i 33 -a 0 -x {0.0 2.0 19 ------- null}
+ -t 0.188944 -s 1 -d 2 -p tcp -e 1040 -c 0 -i 33 -a 0 -x {0.0 2.0 19 ------- null}
- -t 0.188944 -s 1 -d 2 -p tcp -e 1040 -c 0 -i 33 -a 0 -x {0.0 2.0 19 ------- null}
h -t 0.188944 -s 1 -d 2 -p tcp -e 1040 -c 0 -i 33 -a 0 -x {0.0 2.0 -1 ------- null}
r -t 0.190608 -s 0 -d 1 -p tcp -e 1040 -c 0 -i 34 -a 0 -x {0.0 2.0 20 ------- null}
+ -t 0.190608 -s 1 -d 2 -p tcp -e 1040 -c 0 -i 34 -a 0 -x {0.0 2.0 20 ------- null}
- -t 0.190608 -s 1 -d 2 -p tcp -e 1040 -c 0 -i 34 -a 0 -x {0.0 2.0 20 ------- null}
h -t 0.190608 -s 1 -d 2 -p tcp -e 1040 -c 0 -i 34 -a 0 -x {0.0 2.0 -1 ------- null}
r -t 0.192272 -s 0 -d 1 -p tcp -e 1040 -c 0 -i 35 -a 0 -x {0.0 2.0 21 ------- null}
+ -t 0.192272 -s 1 -d 2 -p tcp -e 1040 -c 0 -i 35 -a 0 -x {0.0 2.0 21 ------- null}
- -t 0.192272 -s 1 -d 2 -p tcp -e 1040 -c 0 -i 35 -a 0 -x {0.0 2.0 21 ------- null}
h -t 0.192272 -s 1 -d 2 -p tcp -e 1040 -c 0 -i 35 -a 0 -x {0.0 2.0 -1 ------- null}
r -t 0.193936 -s 0 -d 1 -p tcp -e 1040 -c 0 -i 37 -a 0 -x {0.0 2.0 23 ------- null}
+ -t 0.193936 -s 1 -d 2 -p tcp -e 1040 -c 0 -i 37 -a 0 -x {0.0 2.0 23 ------- null}
- -t 0.193936 -s 1 -d 2 -p tcp -e 1040 -c 0 -i 37 -a 0 -x {0.0 2.0 23 ------- null}
h -t 0.193936 -s 1 -d 2 -p tcp -e 1040 -c 0 -i 37 -a 0 -x {0.0 2.0 -1 ------- null}
r -t 0.193952 -s 1 -d 2 -p tcp -e 1040 -c 0 -i 29 -a 0 -x {0.0 2.0 15 ------- null}
+ -t 0.193952 -s 2 -d 1 -p ack -e 40 -c 0 -i 43 -a 0 -x {2.0 0.0 13 ------- null}
- -t 0.193952 -s 2 -d 1 -p ack -e 40 -c 0 -i 43 -a 0 -x {2.0 0.0 13 ------- null}
h -t 0.193952 -s 2 -d 1 -p ack -e 40 -c 0 -i 43 -a 0 -x {2.0 0.0 -1 ------- null}
r -t 0.1956 -s 0 -d 1 -p tcp -e 1040 -c 0 -i 39 -a 0 -x {0.0 2.0 25 ------- null}
+ -t 0.1956 -s 1 -d 2 -p tcp -e 1040 -c 0 -i 39 -a 0 -x {0.0 2.0 25 ------- null}
- -t 0.1956 -s 1 -d 2 -p tcp -e 1040 -c 0 -i 39 -a 0 -x {0.0 2.0 25 ------- null}
h -t 0.1956 -s 1 -d 2 -p tcp -e 1040 -c 0 -i 39 -a 0 -x {0.0 2.0 -1 ------- null}
r -t 0.195616 -s 1 -d 2 -p tcp -e 1040 -c 0 -i 30 -a 0 -x {0.0 2.0 16 ------- null}
+ -t 0.195616 -s 2 -d 1 -p ack -e 40 -c 0 -i 44 -a 0 -x {2.0 0.0 13 ------- null}
- -t 0.195616 -s 2 -d 1 -p ack -e 40 -c 0 -i 44 -a 0 -x {2.0 0.0 13 ------- null}
h -t 0.195616 -s 2 -d 1 -p ack -e 40 -c 0 -i 44 -a 0 -x {2.0 0.0 -1 ------- null}
r -t 0.197264 -s 0 -d 1 -p tcp -e 1040 -c 0 -i 41 -a 0 -x {0.0 2.0 27 ------- null}
+ -t 0.197264 -s 1 -d 2 -p tcp -e 1040 -c 0 -i 41 -a 0 -x {0.0 2.0 27 ------- null}
- -t 0.197264 -s 1 -d 2 -p tcp -e 1040 -c 0 -i 41 -a 0 -x {0.0 2.0 27 ------- null}
h -t 0.197264 -s 1 -d 2 -p tcp -e 1040 -c 0 -i 41 -a 0 -x {0.0 2.0 -1 ------- null}
r -t 0.19728 -s 1 -d 2 -p tcp -e 1040 -c 0 -i 31 -a 0 -x {0.0 2.0 17 ------- null}
+ -t 0.19728 -s 2 -d 1 -p ack -e 40 -c 0 -i 45 -a 0 -x {2.0 0.0 13 ------- null}
- -t 0.19728 -s 2 -d 1 -p ack -e 40 -c 0 -i 45 -a 0 -x {2.0 0.0 13 ------- null}
h -t 0.19728 -s 2 -d 1 -p ack -e 40 -c 0 -i 45 -a 0 -x {2.0 0.0 -1 ------- null}
r -t 0.198944 -s 1 -d 2 -p tcp -e 1040 -c 0 -i 32 -a 0 -x {0.0 2.0 18 ------- null}
+ -t 0.198944 -s 2 -d 1 -p ack -e 40 -c 0 -i 46 -a 0 -x {2.0 0.0 13 ------- null}
- -t 0.198944 -s 2 -d 1 -p ack -e 40 -c 0 -i 46 -a 0 -x {2.0 0.0 13 ------- null}
h -t 0.198944 -s 2 -d 1 -p ack -e 40 -c 0 -i 46 -a 0 -x {2.0 0.0 -1 ------- null}
r -t 0.200608 -s 1 -d 2 -p tcp -e 1040 -c 0 -i 33 -a 0 -x {0.0 2.0 19 ------- null}
+ -t 0.200608 -s 2 -d 1 -p ack -e 40 -c 0 -i 47 -a 0 -x {2.0 0.0 13 ------- null}
- -t 0.200608 -s 2 -d 1 -p ack -e 40 -c 0 -i 47 -a 0 -x {2.0 0.0 13 ------- null}
h -t 0.200608 -s 2 -d 1 -p ack -e 40 -c 0 -i 47 -a 0 -x {2.0 0.0 -1 ------- null}
r -t 0.202272 -s 1 -d 2 -p tcp -e 1040 -c 0 -i 34 -a 0 -x {0.0 2.0 20 ------- null}
+ -t 0.202272 -s 2 -d 1 -p ack -e 40 -c 0 -i 48 -a 0 -x {2.0 0.0 13 ------- null}
- -t 0.202272 -s 2 -d 1 -p ack -e 40 -c 0 -i 48 -a 0 -x {2.0 0.0 13 ------- null}
h -t 0.202272 -s 2 -d 1 -p ack -e 40 -c 0 -i 48 -a 0 -x {2.0 0.0 -1 ------- null}
r -t 0.203936 -s 1 -d 2 -p tcp -e 1040 -c 0 -i 35 -a 0 -x {0.0 2.0 21 ------- null}
+ -t 0.203936 -s 2 -d 1 -p ack -e 40 -c 0 -i 49 -a 0 -x {2.0 0.0 13 ------- null}
- -t 0.203936 -s 2 -d 1 -p ack -e 40 -c 0 -i 49 -a 0 -x {2.0 0.0 13 ------- null}
h -t 0.203936 -s 2 -d 1 -p ack -e 40 -c 0 -i 49 -a 0 -x {2.0 0.0 -1 ------- null}
r -t 0.204016 -s 2 -d 1 -p ack -e 40 -c 0 -i 43 -a 0 -x {2.0 0.0 13 ------- null}
+ -t 0.204016 -s 1 -d 0 -p ack -e 40 -c 0 -i 43 -a 0 -x {2.0 0.0 13 ------- null}
- -t 0.204016 -s 1 -d 0 -p ack -e 40 -c 0 -i 43 -a 0 -x {2.0 0.0 13 ------- null}
h -t 0.204016 -s 1 -d 0 -p ack -e 40 -c 0 -i 43 -a 0 -x {2.0 0.0 -1 ------- null}
r -t 0.2056 -s 1 -d 2 -p tcp -e 1040 -c 0 -i 37 -a 0 -x {0.0 2.0 23 ------- null}
+ -t 0.2056 -s 2 -d 1 -p ack -e 40 -c 0 -i 50 -a 0 -x {2.0 0.0 13 ------- null}
- -t 0.2056 -s 2 -d 1 -p ack -e 40 -c 0 -i 50 -a 0 -x {2.0 0.0 13 ------- null}
h -t 0.2056 -s 2 -d 1 -p ack -e 40 -c 0 -i 50 -a 0 -x {2.0 0.0 -1 ------- null}
r -t 0.20568 -s 2 -d 1 -p ack -e 40 -c 0 -i 44 -a 0 -x {2.0 0.0 13 ------- null}
+ -t 0.20568 -s 1 -d 0 -p ack -e 40 -c 0 -i 44 -a 0 -x {2.0 0.0 13 ------- null}
- -t 0.20568 -s 1 -d 0 -p ack -e 40 -c 0 -i 44 -a 0 -x {2.0 0.0 13 ------- null}
h -t 0.20568 -s 1 -d 0 -p ack -e 40 -c 0 -i 44 -a 0 -x {2.0 0.0 -1 ------- null}
r -t 0.207264 -s 1 -d 2 -p tcp -e 1040 -c 0 -i 39 -a 0 -x {0.0 2.0 25 ------- null}
+ -t 0.207264 -s 2 -d 1 -p ack -e 40 -c 0 -i 51 -a 0 -x {2.0 0.0 13 ------- null}
- -t 0.207264 -s 2 -d 1 -p ack -e 40 -c 0 -i 51 -a 0 -x {2.0 0.0 13 ------- null}
h -t 0.207264 -s 2 -d 1 -p ack -e 40 -c 0 -i 51 -a 0 -x {2.0 0.0 -1 ------- null}
r -t 0.207344 -s 2 -d 1 -p ack -e 40 -c 0 -i 45 -a 0 -x {2.0 0.0 13 ------- null}
+ -t 0.207344 -s 1 -d 0 -p ack -e 40 -c 0 -i 45 -a 0 -x {2.0 0.0 13 ------- null}
- -t 0.207344 -s 1 -d 0 -p ack -e 40 -c 0 -i 45 -a 0 -x {2.0 0.0 13 ------- null}
h -t 0.207344 -s 1 -d 0 -p ack -e 40 -c 0 -i 45 -a 0 -x {2.0 0.0 -1 ------- null}
r -t 0.208928 -s 1 -d 2 -p tcp -e 1040 -c 0 -i 41 -a 0 -x {0.0 2.0 27 ------- null}
+ -t 0.208928 -s 2 -d 1 -p ack -e 40 -c 0 -i 52 -a 0 -x {2.0 0.0 13 ------- null}
- -t 0.208928 -s 2 -d 1 -p ack -e 40 -c 0 -i 52 -a 0 -x {2.0 0.0 13 ------- null}
h -t 0.208928 -s 2 -d 1 -p ack -e 40 -c 0 -i 52 -a 0 -x {2.0 0.0 -1 ------- null}
r -t 0.209008 -s 2 -d 1 -p ack -e 40 -c 0 -i 46 -a 0 -x {2.0 0.0 13 ------- null}
+ -t 0.209008 -s 1 -d 0 -p ack -e 40 -c 0 -i 46 -a 0 -x {2.0 0.0 13 ------- null}
- -t 0.209008 -s 1 -d 0 -p ack -e 40 -c 0 -i 46 -a 0 -x {2.0 0.0 13 ------- null}
h -t 0.209008 -s 1 -d 0 -p ack -e 40 -c 0 -i 46 -a 0 -x {2.0 0.0 -1 ------- null}